                  Welcome to Q-Chem
     A Quantum Leap Into The Future Of Chemistry


 Q-Chem 6.0 (devel), Q-Chem, Inc., Pleasanton, CA (2022)

 E. Epifanovsky,  A. T. B. Gilbert,  Xintian Feng,  Joonho Lee,  Yuezhi Mao,  
 N. Mardirossian,  P. Pokhilko,  A. White,  M. Wormit,  M. P. Coons,  
 A. L. Dempwolff,  Zhengting Gan,  D. Hait,  P. R. Horn,  L. D. Jacobson,  
 I. Kaliman,  J. Kussmann,  A. W. Lange,  Ka Un Lao,  D. S. Levine,  Jie Liu,  
 S. C. McKenzie,  A. F. Morrison,  K. Nanda,  F. Plasser,  D. R. Rehn,  
 M. L. Vidal,  Zhi-Qiang You,  Ying Zhu,  B. Alam,  B. Albrecht,  
 A. Aldossary,  E. Alguire,  J. H. Andersen,  V. Athavale,  D. Barton,  
 K. Begam,  A. Behn,  N. Bellonzi,  Y. A. Bernard,  E. J. Berquist,  
 H. Burton,  A. Carreras,  K. Carter-Fenk,  Romit Chakraborty,  
 Chandrima Chakravarty,  Junhan Chen,  A. D. Chien,  K. D. Closser,  
 V. Cofer-Shabica,  L. Cunha,  S. Dasgupta,  Jia Deng,  M. de Wergifosse,  
 M. Diedenhofen,  Hainam Do,  S. Ehlert,  Po-Tung Fang,  S. Fatehi,  
 Qingguo Feng,  T. Friedhoff,  B. Ganoe,  J. Gayvert,  Qinghui Ge,  
 G. Gidofalvi,  M. Goldey,  J. Gomes,  C. Gonzalez-Espinoza,  S. Gulania,  
 A. Gunina,  J. A. Gyamfi,  M. W. D. Hanson-Heine,  P. H. P. Harbach,  
 A. W. Hauser,  M. F. Herbst,  M. Hernandez Vera,  M. Hodecker,  
 Z. C. Holden,  S. Houck,  Xunkun Huang,  Kerwin Hui,  B. C. Huynh,  
 K. Ikeda,  M. Ivanov,  Hyunjun Ji,  Zuxin Jin,  Hanjie Jiang,  B. Kaduk,  
 S. Kaehler,  R. Kang,  K. Khistyaev,  Jaehoon Kim,  Yongbin Kim,  
 P. Klunzinger,  Z. Koczor-Benda,  Joong Hoon Koh,  D. Kosenkov,  
 Saikiran Kotaru,  L. Koulias,  T. Kowalczyk,  C. M. Krauter,  K. Kue,  
 A. Kunitsa,  T. Kus,  A. Landau,  K. V. Lawler,  D. Lefrancois,  S. Lehtola,  
 Rain Li,  Shaozhi Li,  Yi-Pei Li,  Jiashu Liang,  M. Liebenthal,  
 Hung-Hsuan Lin,  You-Sheng Lin,  Fenglai Liu,  Kuan-Yu Liu,  
 M. Loipersberger,  A. Luenser,  C. Malbon,  A. Manjanath,  P. Manohar,  
 E. Mansoor,  S. F. Manzer,  Shan-Ping Mao,  A. V. Marenich,  T. Markovich,  
 S. Mason,  F. Matz,  S. A. Maurer,  P. F. McLaughlin,  M. F. S. J. Menger,  
 J.-M. Mewes,  S. A. Mewes,  P. Morgante,  Mohammad Mostafanejad,  
 J. W. Mullinax,  K. J. Oosterbaan,  G. Paran,  V. Parravicini,  
 Alexander C. Paul,  Suranjan K. Paul,  F. Pavosevic,  Zheng Pei,  S. Prager,  
 E. I. Proynov,  E. Ramos,  B. Rana,  A. E. Rask,  A. Rettig,  R. M. Richard,  
 F. Rob,  E. Rossomme,  T. Scheele,  M. Scheurer,  M. Schneider,  
 P. E. Schneider,  N. Sergueev,  S. M. Sharada,  Hengyuan Shen,  
 W. Skomorowski,  D. W. Small,  C. J. Stein,  Yingli Su,  Yu-Chuan Su,  
 E. J. Sundstrom,  Zhen Tao,  J. Thirman,  Hung-Yi Tsai,  T. Tsuchimochi,  
 N. M. Tubman,  C. Utku,  S. P. Veccham,  O. Vydrov,  J. Wenzel,  
 Jonathan Wong,  J. Witte,  A. Yamada,  Chou-Hsun Yang,  Kun Yao,  
 S. Yeganeh,  S. R. Yost,  A. Zech,  F. Zeller,  Igor Ying Zhang,  
 Xing Zhang,  Yu Zhang,  D. Zuev,  A. Aspuru-Guzik,  A. T. Bell,  
 N. A. Besley,  K. B. Bravaya,  B. R. Brooks,  D. Casanova,  Jeng-Da Chai,  
 Hsing-Ta Chen,  S. Coriani,  C. J. Cramer,  A. E. DePrince, III,  
 R. A. DiStasio Jr.,  A. Dreuw,  B. D. Dunietz,  T. R. Furlani,  
 W. A. Goddard III,  S. Grimme,  S. Hammes-Schiffer,  T. Head-Gordon,  
 W. J. Hehre,  Chao-Ping Hsu,  T.-C. Jagau,  Yousung Jung,  A. Klamt,  
 Jing Kong,  D. S. Lambrecht,  Xiangyuan Li,  WanZhen Liang,  N. J. Mayhall,  
 C. W. McCurdy,  J. B. Neaton,  T. Neudecker,  C. Ochsenfeld,  
 J. A. Parkhill,  R. Peverati,  V. A. Rassolov,  Haisheng Ren,  Yihan Shao,  
 L. V. Slipchenko,  R. P. Steele,  J. E. Subotnik,  A. J. W. Thom,  
 A. Tkatchenko,  D. G. Truhlar,  T. Van Voorhis,  Fan Wang,  
 T. A. Wesolowski,  K. B. Whaley,  H. L. Woodcock III,  P. M. Zimmerman,  
 S. Faraji,  P. M. W. Gill,  M. Head-Gordon,  J. M. Herbert,  A. I. Krylov

 Contributors to earlier versions of Q-Chem not listed above: 
 R. D. Adamson,  B. Austin,  R. Baer,  J. Baker,  G. J. O. Beran,  
 K. Brandhorst,  S. T. Brown,  E. F. C. Byrd,  Arup K. Chakraborty,  
 G. K. L. Chan,  Chun-Min Chang,  Yunqing Chen,  C.-L. Cheng,  
 Siu Hung Chien,  D. M. Chipman,  D. L. Crittenden,  H. Dachsel,  
 R. J. Doerksen,  A. D. Dutoi,  R. G. Edgar,  J. Fosso-Tande,  
 L. Fusti-Molnar,  D. Ghosh,  A. Ghysels,  A. Golubeva-Zadorozhnaya,  
 J. Gonthier,  M. S. Gordon,  S. R. Gwaltney,  G. Hawkins,  J. E. Herr,  
 A. Heyden,  S. Hirata,  E. G. Hohenstein,  G. Kedziora,  F. J. Keil,  
 C. Kelley,  Jihan Kim,  R. A. King,  R. Z. Khaliullin,  P. P. Korambath,  
 W. Kurlancheek,  A. Laurent,  A. M. Lee,  M. S. Lee,  S. V. Levchenko,  
 Ching Yeh Lin,  D. Liotard,  E. Livshits,  R. C. Lochan,  I. Lotan,  
 L. A. Martinez-Martinez,  P. E. Maslen,  N. Nair,  D. P. O'Neill,  
 D. Neuhauser,  E. Neuscamman,  C. M. Oana,  R. Olivares-Amaya,  R. Olson,  
 T. M. Perrine,  B. Peters,  P. A. Pieniazek,  A. Prociuk,  Y. M. Rhee,  
 J. Ritchie,  M. A. Rohrdanz,  E. Rosta,  N. J. Russ,  H. F. Schaefer III,  
 M. W. Schmidt,  N. E. Schultz,  S. Sharma,  N. Shenvi,  C. D. Sherrill,  
 A. C. Simmonett,  A. Sodt,  T. Stein,  D. Stuck,  K. S. Thanthiriwatte,  
 V. Vanovschi,  L. Vogt,  Tao Wang,  A. Warshel,  M. A. Watson,  
 C. F. Williams,  Q. Wu,  X. Xu,  Jun Yang,  W. Zhang,  Yan Zhao

   Please cite Q-Chem as follows:
  "Software for the frontiers of quantum chemistry:
   An overview of developments in the Q-Chem 5 package"
   J. Chem. Phys. 155, 084801 (2021)
   https://doi.org/10.1063/5.0055522 (open access)

 Q-Chem 6.0.2 for Intel X86 EM64T Linux

 Parts of Q-Chem use Armadillo 9.900.5 (Nocturnal Misbehaviour).
 http://arma.sourceforge.net/

 Q-Chem begins on Wed Jul  5 10:10:35 2023  

 Host: 
0

     Scratch files written to /lscratch/ccprak16/base_double_anion_568/qchem29188//
 Processing $rem in /opt/software/Q-Chem/intel/mkl/6.0.2/generic/config/preferences:
 Processing $rem in /export/home/ccprak16/.qchemrc:

 Checking the input file for inconsistencies... 	...done.

--------------------------------------------------------------
User input:
--------------------------------------------------------------
$molecule
-2 1
  O   -0.3020517   -0.0030488   -0.0608248
  H    0.7723046   -0.1693890    0.0424309
  H   -0.3867279    0.9094388   -0.6547275
  F    1.4777795   -0.9068063    0.4062690
  F   -1.1363580    1.4995667   -1.1682408
$end

$rem
jobtype opt
method hf
basis 6-31g
threads 4
input_bohr true
mem_total 10000
!QSYS wt=01:00:00
$end
--------------------------------------------------------------
 ----------------------------------------------------------------
             Standard Nuclear Orientation (Bohr)
    I     Atom           X                Y                Z
 ----------------------------------------------------------------
    1      O       0.0020746638    -0.4615175693    -0.0005630634
    2      H      -0.8654724672     0.1955092923    -0.0913922422
    3      H       0.8646035483     0.2009082244    -0.0993562168
    4      F      -1.9440301697     0.1829229900     0.0106476483
    5      F       1.9422825706     0.1832684587     0.0110471258
 ----------------------------------------------------------------
 Molecular Point Group                 C1    NOp =  1
 Largest Abelian Subgroup              C1    NOp =  1
 Nuclear Repulsion Energy =         129.42654558 hartrees
 There are       15 alpha and       15 beta electrons
 Requested basis set is 6-31G
 There are 13 shells and 31 basis functions

 Total QAlloc Memory Limit  10000 MB
 Mega-Array Size       188 MB
 MEM_STATIC part       192 MB

 -----------------------------------------------------------------------
                STARTING GEOMETRY OPTIMIZER USING LIBOPT3
                by Peter F. McLaughlin, Yu Zhang, Evgeny Epifanovsky
 -----------------------------------------------------------------------

              Initial Energy and Gradient Calculation
   -- Checking Topology for Ill-Behaving Coordinates --

 -------------------------------------------
   Coordinate       |  Removed | Additions 
 -------------------------------------------
	Bonds                     0          0
	Angles                    2          0
	Torsions                  5          4
	Co-Linear Type5s          0          4
	Co-Linear Type6s          0          4
 -------------------------------------------

 ** Ill-Behaving Topology Definitions (No action needed.) **

  Ill-Defined Angles Removed: 
   3   2   4,   2   3   5

  Ill-Defined Torsions Removed: 
   1   2   3   5,   1   3   2   4,   2   3   5   1,   3   2   4   1,   5   3   2   4

     Done Checking Topology
 ----------------------------------------------------------------
             Standard Nuclear Orientation (Bohr)
    I     Atom           X                Y                Z
 ----------------------------------------------------------------
    1      O       0.0020746638    -0.4615175693    -0.0005630634
    2      H      -0.8654724672     0.1955092923    -0.0913922422
    3      H       0.8646035483     0.2009082244    -0.0993562168
    4      F      -1.9440301697     0.1829229900     0.0106476483
    5      F       1.9422825706     0.1832684587     0.0110471258
 ----------------------------------------------------------------
 Molecular Point Group                 C1    NOp =  1
 Largest Abelian Subgroup              C1    NOp =  1
 Nuclear Repulsion Energy =         129.42654558 hartrees
 There are       15 alpha and       15 beta electrons

                       Distance Matrix (Bohrs)
             O (  1)   H (  2)   H (  3)   F (  4)
   H (  2)  1.092050
   H (  3)  1.092028  1.730103
   F (  4)  2.050062  1.083447  2.810845
   F (  5)  2.044576  2.809650  1.083463  3.886313
 
 Requested basis set is 6-31G
 There are 13 shells and 31 basis functions
 A cutoff of  1.0D-12 yielded     90 shell pairs
 There are       531 function pairs
 Smallest overlap matrix eigenvalue = 8.81E-03

 Scale SEOQF with 1.000000e+00/1.000000e+00/1.000000e+00

 Standard Electronic Orientation quadrupole field applied
 Nucleus-field energy     =     0.0000000074 hartrees
 Guess from superposition of atomic densities
 Warning:  Energy on first SCF cycle will be non-variational
 SAD guess density has 28.000000 electrons

 -----------------------------------------------------------------------
  General SCF calculation program by
  Eric Jon Sundstrom, Paul Horn, Yuezhi Mao, Dmitri Zuev, Alec White,
  David Stuck, Shaama M.S., Shane Yost, Joonho Lee, David Small,
  Daniel Levine, Susi Lehtola, Hugh Burton, Evgeny Epifanovsky,
  Bang C. Huynh
 -----------------------------------------------------------------------
 Hartree-Fock
 using 4 threads for integral computing
 -------------------------------------------------------
 OpenMP Integral computing Module                
 Release: version 1.0, May 2013, Q-Chem Inc. Pittsburgh 
 -------------------------------------------------------
 A restricted SCF calculation will be
 performed using DIIS
 SCF converges when DIIS error is below 1.0e-08
 ---------------------------------------
  Cycle       Energy         DIIS error
 ---------------------------------------
    1    -278.8013271351      5.33e-01  
    2    -269.9918403748      3.28e-02  
    3    -270.0764388307      1.18e-02  
    4    -270.0863950362      1.67e-03  
    5    -270.0866682628      2.36e-04  
    6    -270.0866740091      1.11e-04  
    7    -270.0866752665      2.58e-05  
    8    -270.0866753607      7.68e-06  
    9    -270.0866753762      2.48e-06  
   10    -270.0866753800      8.46e-07  
   11    -270.0866753806      2.50e-07  
   12    -270.0866753806      6.65e-08  
   13    -270.0866753806      8.86e-09  Convergence criterion met
 ---------------------------------------
 SCF time:   CPU 2.58s  wall 1.00s 
 SCF   energy in the final basis set =     -270.0866753806
 Total energy in the final basis set =     -270.0866753806
 
 --------------------------------------------------------------
 
                    Orbital Energies (a.u.)
 --------------------------------------------------------------
 
 Alpha MOs
 -- Occupied --
-25.6840 -25.6786 -20.0503  -1.9153  -1.6590  -0.6652  -0.4990  -0.4576
 -0.4061  -0.2141  -0.1730   0.0585   0.1404   0.2966   0.6268
 -- Virtual --
  0.9752   1.2781   1.5299   1.6326   1.6464   1.8619   1.9891   2.0607
  2.1278   2.1573   2.3163   2.3335   2.9149   3.1262   4.0022   4.7366
 --------------------------------------------------------------
 
          Ground-State Mulliken Net Atomic Charges

     Atom                 Charge (a.u.)
  ----------------------------------------
      1 O                     0.925915
      2 H                    -1.654330
      3 H                    -1.695844
      4 F                     0.205289
      5 F                     0.218970
  ----------------------------------------
  Sum of atomic charges =    -2.000000

 -----------------------------------------------------------------
                    Cartesian Multipole Moments
 -----------------------------------------------------------------
    Charge (ESU x 10^10)
                -9.6064
    Dipole Moment (Debye)
         X       0.0050      Y      -2.8585      Z       0.8526
       Tot       2.9829
    Quadrupole Moments (Debye-Ang)
        XX     -26.3440     XY      -0.0128     YY     -25.1238
        XZ       0.0206     YZ       0.3463     ZZ     -24.3360
    Octopole Moments (Debye-Ang^2)
       XXX       0.0158    XXY      -1.5692    XYY      -0.0488
       YYY      -6.1465    XXZ       0.7209    XYZ       0.0030
       YYZ       0.8503    XZZ      -0.0512    YZZ      -2.1122
       ZZZ       2.3474
    Hexadecapole Moments (Debye-Ang^3)
      XXXX     -92.6754   XXXY      -0.0066   XXYY     -19.6204
      XYYY      -0.0425   YYYY     -33.0641   XXXZ       0.0445
      XXYZ       0.1321   XYYZ       0.0167   YYYZ       0.5578
      XXZZ     -19.5373   XYZZ      -0.0154   YYZZ     -10.3251
      XZZZ       0.0488   YZZZ       0.5776   ZZZZ     -28.7603
 -----------------------------------------------------------------
 Calculating analytic gradient of the SCF energy
 Gradient of SCF Energy
            1           2           3           4           5
    1  -0.0208535  -0.2883788   0.3000639   3.6824310  -3.6732626
    2   3.2692599  -1.3520194  -1.3738940  -0.2779562  -0.2653903
    3  -0.3730269   0.3729983   0.4070990  -0.1949005  -0.2121698
 Max gradient component =       3.682E+00
 RMS gradient           =       1.679E+00
 Gradient time:  CPU 0.64 s  wall 0.31 s

 *****************************************************
             Starting BFGS Algorithm
 *****************************************************
            LIBOPT3 RUN PARAMETERS

  Geometry Optimization Coordinates :
	Delocalized Natural Internal Coordinates

  Step Length Selection Method :
	Eigenvector Following Algorithm

  Convergence Criteria :
	Max Gradient Component    	3.00000000e-04
	Max Displacement Component	1.20000000e-03
	Absolute Energy Difference	1.00000000e-06

  Initial Hessian :
	Approximate Hessian - Simple Internal Coordinate Scaled

  Type of Verification :
	Verify with final updated Hessian
 *****************************************************

	OPTIMIZATION CYCLE:	1

 Scaling Magnitude of Eigenvalues
 	Minimum: -25.00000000	 Maximum: 25.00000000
 9 Hessian Eigenvalues to form next step
   0.10396447   0.10967097   0.12336221   0.14153978   0.50000000
   0.50396937   0.50579014   0.52911885   0.59648813

 Minimum Search taking a RFO step
 Searching for Lambda that minimizes along all modes
	Value of Lambda   -3.89508426
	Norm  of Stepsize  0.90000000
	RMS   of Stepsize  0.30000000

	Performing Iterative Coordinate Back-Transformation

	  Starting from Previous Position

	  iter:	0	rms: 1.7586124758e-01	maxdev: 4.5777526749e-01
	  iter:	1	rms: 9.6886462035e-04	maxdev: 2.4776425339e-03
	  iter:	2	rms: 7.7976621075e-07	maxdev: 1.9605508012e-06	 Success!

	Finished Iterative Coordinate Back-Transformation
 ----------------------------------------------------------------
             Standard Nuclear Orientation (Bohr)
    I     Atom           X                Y                Z
 ----------------------------------------------------------------
    1      O       0.0026126369    -0.5610170865     0.0058686440
    2      H      -0.9893151083     0.2222335387    -0.1088898059
    3      H       0.9884741247     0.2291560618    -0.1188325929
    4      F      -2.4025404542     0.2053328892     0.0256880617
    5      F       2.4002269469     0.2053859930     0.0265489447
 ----------------------------------------------------------------
 Molecular Point Group                 C1    NOp =  1
 Largest Abelian Subgroup              C1    NOp =  1
 Nuclear Repulsion Energy =         105.08553886 hartrees
 There are       15 alpha and       15 beta electrons

                       Distance Matrix (Bohrs)
             O (  1)   H (  2)   H (  3)   F (  4)
   H (  2)  1.269083
   H (  3)  1.269585  1.977826
   F (  4)  2.524371  1.419719  3.394176
   F (  5)  2.517212  3.392289  1.419418  4.802767
 
 Applying Cartesian multipole field
    Component          Value
    ---------          -----
     (2,0,0)        1.00000E-10
     (0,2,0)        2.00000E-10
     (0,0,2)       -3.00000E-10
 Nucleus-field energy     = 1.1239773499e-08 hartrees
 Requested basis set is 6-31G
 There are 13 shells and 31 basis functions
 A cutoff of  1.0D-12 yielded     90 shell pairs
 There are       531 function pairs
 Smallest overlap matrix eigenvalue = 1.46E-02
 Guess MOs from SCF MO coefficient file

 -----------------------------------------------------------------------
  General SCF calculation program by
  Eric Jon Sundstrom, Paul Horn, Yuezhi Mao, Dmitri Zuev, Alec White,
  David Stuck, Shaama M.S., Shane Yost, Joonho Lee, David Small,
  Daniel Levine, Susi Lehtola, Hugh Burton, Evgeny Epifanovsky,
  Bang C. Huynh
 -----------------------------------------------------------------------
 Hartree-Fock
 A restricted SCF calculation will be
 performed using DIIS
 SCF converges when DIIS error is below 1.0e-08
 ---------------------------------------
  Cycle       Energy         DIIS error
 ---------------------------------------
    1    -272.1810972062      4.42e-02  
    2    -272.3866813167      7.93e-03  
    3    -272.3936351427      2.80e-03  
    4    -272.3943995397      5.25e-04  
    5    -272.3948234264      6.21e-04  
    6    -272.3948714778      6.43e-04  
    7    -272.3941849912      1.13e-04  
    8    -272.3941854031      2.73e-05  
    9    -272.3941854807      1.17e-05  
   10    -272.3941855008      4.87e-06  
   11    -272.3941855094      1.93e-06  
   12    -272.3941855112      3.70e-07  
   13    -272.3941855113      7.23e-08  
   14    -272.3941855113      2.62e-08  
   15    -272.3941855113      6.58e-09  Convergence criterion met
 ---------------------------------------
 SCF time:   CPU 2.99s  wall 1.00s 
 SCF   energy in the final basis set =     -272.3941855113
 Total energy in the final basis set =     -272.3941855113
 
 --------------------------------------------------------------
 
                    Orbital Energies (a.u.)
 --------------------------------------------------------------
 
 Alpha MOs
 -- Occupied --
-25.7459 -25.7416 -20.0881  -1.5097  -1.3072  -0.8070  -0.4852  -0.3476
 -0.2760  -0.1787  -0.1618  -0.0395   0.0162   0.0661   0.5993
 -- Virtual --
  0.7746   0.9986   1.5686   1.6323   1.6630   1.9627   1.9706   1.9946
  2.1250   2.1298   2.2252   2.3082   2.7771   2.9052   3.1441   3.2937
 --------------------------------------------------------------
 
          Ground-State Mulliken Net Atomic Charges

     Atom                 Charge (a.u.)
  ----------------------------------------
      1 O                     1.038808
      2 H                    -1.436025
      3 H                    -1.453816
      4 F                    -0.078039
      5 F                    -0.070928
  ----------------------------------------
  Sum of atomic charges =    -2.000000

 -----------------------------------------------------------------
                    Cartesian Multipole Moments
 -----------------------------------------------------------------
    Charge (ESU x 10^10)
                -9.6064
    Dipole Moment (Debye)
         X       0.0281      Y      -3.3096      Z       0.9199
       Tot       3.4352
    Quadrupole Moments (Debye-Ang)
        XX     -28.1712     XY      -0.0098     YY     -26.0823
        XZ       0.0194     YZ       0.5020     ZZ     -24.6874
    Octopole Moments (Debye-Ang^2)
       XXX       0.1004    XXY      -1.8534    XYY      -0.0159
       YYY      -6.2389    XXZ       0.6405    XYZ       0.0046
       YYZ       0.8624    XZZ      -0.0168    YZZ      -2.1424
       ZZZ       2.3071
    Hexadecapole Moments (Debye-Ang^3)
      XXXX    -133.4289   XXXY      -0.0025   XXYY     -26.0957
      XYYY      -0.0332   YYYY     -34.9490   XXXZ       0.0359
      XXYZ       0.2137   XYYZ       0.0163   YYYZ       0.7531
      XXZZ     -25.5812   XYZZ      -0.0125   YYZZ     -10.5558
      XZZZ       0.0460   YZZZ       0.7748   ZZZZ     -28.2188
 -----------------------------------------------------------------
 Calculating analytic gradient of the SCF energy
 Gradient of SCF Energy
            1           2           3           4           5
    1  -0.0097721   0.3002161  -0.2889719   1.1126272  -1.1140993
    2   1.6483949  -0.7728082  -0.7797276  -0.0494686  -0.0463906
    3  -0.2305749   0.1689773   0.1857862  -0.0588837  -0.0653049
 Max gradient component =       1.648E+00
 RMS gradient           =       6.685E-01
 Gradient time:  CPU 0.48 s  wall 0.23 s

     Step 1	:
        Energy is -272.3941855113
                            Maximum         Tolerance       Converged?
         Gradient           1.44532970e+00	3.00000000e-04	false
         Displacement       8.77929765e-01	1.20000000e-03	false
         Energy change      2.30751013e+00	1.00000000e-06	false


	OPTIMIZATION CYCLE:	2

 Scaling Magnitude of Eigenvalues
 	Minimum: -25.00000000	 Maximum: 25.00000000
 9 Hessian Eigenvalues to form next step
   0.10399877   0.10967118   0.12340954   0.14154054   0.49597472
   0.50576725   0.52529912   0.59648778   3.04386742

 Minimum Search taking a RFO step
 Searching for Lambda that minimizes along all modes
	Value of Lambda   -0.78081115
	Norm  of Stepsize  0.59241251
	RMS   of Stepsize  0.19747084

	Performing Iterative Coordinate Back-Transformation

	  Starting from Previous Position

	  iter:	0	rms: 9.7412162621e-02	maxdev: 1.8537765005e-01
	  iter:	1	rms: 1.6946612362e-03	maxdev: 4.1920103914e-03
	  iter:	2	rms: 3.2282368041e-06	maxdev: 6.3962837093e-06
	  iter:	3	rms: 5.8366640418e-12	maxdev: 1.6260957087e-11	 Success!

	Finished Iterative Coordinate Back-Transformation
 ----------------------------------------------------------------
             Standard Nuclear Orientation (Bohr)
    I     Atom           X                Y                Z
 ----------------------------------------------------------------
    1      O       0.0028898780    -0.6928112902     0.0151037520
    2      H      -1.1530600941     0.2577271125    -0.1178684513
    3      H       1.1499080077     0.2661542170    -0.1296323304
    4      F      -2.5828650076     0.2350192668     0.0308268518
    5      F       2.5825853618     0.2350020900     0.0319534295
 ----------------------------------------------------------------
 Molecular Point Group                 C1    NOp =  1
 Largest Abelian Subgroup              C1    NOp =  1
 Nuclear Repulsion Energy =          96.55383782 hartrees
 There are       15 alpha and       15 beta electrons

                       Distance Matrix (Bohrs)
             O (  1)   H (  2)   H (  3)   F (  4)
   H (  2)  1.502473
   H (  3)  1.502070  2.303014
   F (  4)  2.747225  1.437695  3.736350
   F (  5)  2.741523  3.738718  1.442097  5.165450
 
 Applying Cartesian multipole field
    Component          Value
    ---------          -----
     (2,0,0)        1.00000E-10
     (0,2,0)        2.00000E-10
     (0,0,2)       -3.00000E-10
 Nucleus-field energy     = 1.3251216205e-08 hartrees
 Requested basis set is 6-31G
 There are 13 shells and 31 basis functions
 A cutoff of  1.0D-12 yielded     88 shell pairs
 There are       523 function pairs
 Smallest overlap matrix eigenvalue = 1.83E-02
 Guess MOs from SCF MO coefficient file

 -----------------------------------------------------------------------
  General SCF calculation program by
  Eric Jon Sundstrom, Paul Horn, Yuezhi Mao, Dmitri Zuev, Alec White,
  David Stuck, Shaama M.S., Shane Yost, Joonho Lee, David Small,
  Daniel Levine, Susi Lehtola, Hugh Burton, Evgeny Epifanovsky,
  Bang C. Huynh
 -----------------------------------------------------------------------
 Hartree-Fock
 A restricted SCF calculation will be
 performed using DIIS
 SCF converges when DIIS error is below 1.0e-08
 ---------------------------------------
  Cycle       Energy         DIIS error
 ---------------------------------------
    1    -272.9325360287      1.86e-02  
    2    -272.9691384230      6.35e-03  
    3    -272.9729687199      2.68e-03  
    4    -272.9814486855      2.98e-03  
    5    -272.9784903758      2.43e-03  
    6    -272.9729691098      9.89e-04  
    7    -272.9730176230      7.83e-04  
    8    -272.9728893984      1.48e-04  
    9    -272.9728910831      1.89e-05  
   10    -272.9728910940      6.82e-06  
   11    -272.9728911051      4.86e-06  
   12    -272.9728911047      2.38e-06  
   13    -272.9728911048      8.84e-07  
   14    -272.9728911046      1.50e-07  
   15    -272.9728911046      2.86e-08  
   16    -272.9728911046      1.06e-08  
   17    -272.9728911046      4.21e-09  Convergence criterion met
 ---------------------------------------
 SCF time:   CPU 1.99s  wall 1.00s 
 SCF   energy in the final basis set =     -272.9728911046
 Total energy in the final basis set =     -272.9728911046
 
 --------------------------------------------------------------
 
                    Orbital Energies (a.u.)
 --------------------------------------------------------------
 
 Alpha MOs
 -- Occupied --
-25.7637 -25.7612 -20.1117  -1.3785  -1.2440  -0.8199  -0.4395  -0.3336
 -0.2422  -0.1817  -0.1655  -0.0803  -0.0150   0.0137   0.5981
 -- Virtual --
  0.6759   1.0034   1.5829   1.6180   1.6595   1.9553   1.9557   1.9739
  2.0983   2.1068   2.2154   2.3212   2.5361   2.6774   2.8171   3.1149
 --------------------------------------------------------------
 
          Ground-State Mulliken Net Atomic Charges

     Atom                 Charge (a.u.)
  ----------------------------------------
      1 O                     0.719907
      2 H                    -1.238723
      3 H                    -1.246647
      4 F                    -0.117971
      5 F                    -0.116566
  ----------------------------------------
  Sum of atomic charges =    -2.000000

 -----------------------------------------------------------------
                    Cartesian Multipole Moments
 -----------------------------------------------------------------
    Charge (ESU x 10^10)
                -9.6064
    Dipole Moment (Debye)
         X       0.0153      Y      -3.6372      Z       0.9602
       Tot       3.7618
    Quadrupole Moments (Debye-Ang)
        XX     -29.3809     XY      -0.0099     YY     -26.5284
        XZ       0.0214     YZ       0.6035     ZZ     -24.6438
    Octopole Moments (Debye-Ang^2)
       XXX       0.0372    XXY      -2.0966    XYY      -0.0197
       YYY      -5.8052    XXZ       0.6254    XYZ       0.0058
       YYZ       0.8489    XZZ      -0.0170    YZZ      -2.0629
       ZZZ       2.2494
    Hexadecapole Moments (Debye-Ang^3)
      XXXX    -155.1605   XXXY      -0.0147   XXYY     -29.5801
      XYYY      -0.0337   YYYY     -37.3198   XXXZ       0.0388
      XXYZ       0.2731   XYYZ       0.0191   YYYZ       0.9247
      XXZZ     -28.6480   XYZZ      -0.0131   YYZZ     -10.8151
      XZZZ       0.0519   YZZZ       0.9438   ZZZZ     -27.4554
 -----------------------------------------------------------------
 Calculating analytic gradient of the SCF energy
 Gradient of SCF Energy
            1           2           3           4           5
    1  -0.0057912  -0.0681705   0.0667373   0.8074024  -0.8001780
    2   0.8606568  -0.4247624  -0.4312476  -0.0041717  -0.0004751
    3  -0.1211472   0.1131709   0.1236580  -0.0553723  -0.0603094
 Max gradient component =       8.607E-01
 RMS gradient           =       4.048E-01
 Gradient time:  CPU 0.43 s  wall 0.22 s

     Step 2	:
        Energy is -272.9728911046
                            Maximum         Tolerance       Converged?
         Gradient           9.04403523e-01	3.00000000e-04	false
         Displacement       4.46659270e-01	1.20000000e-03	false
         Energy change      5.78705593e-01	1.00000000e-06	false


	OPTIMIZATION CYCLE:	3

 Scaling Magnitude of Eigenvalues
 	Minimum: -25.00000000	 Maximum: 25.00000000
 9 Hessian Eigenvalues to form next step
   0.10387211   0.10967045   0.12327943   0.14153821   0.50575498
   0.51299991   0.59648539   0.87859718   1.26195050

 Minimum Search taking a RFO step
 Searching for Lambda that minimizes along all modes
	Value of Lambda   -0.51166305
	Norm  of Stepsize  0.55229561
	RMS   of Stepsize  0.18409854

	Performing Iterative Coordinate Back-Transformation

	  Starting from Previous Position

	  iter:	0	rms: 1.0115927378e-01	maxdev: 2.6066644527e-01
	  iter:	1	rms: 1.1261581067e-03	maxdev: 1.5840658720e-03
	  iter:	2	rms: 7.5129636159e-06	maxdev: 1.5050938434e-05
	  iter:	3	rms: 5.3250903628e-10	maxdev: 1.1494695501e-09	 Success!

	Finished Iterative Coordinate Back-Transformation
 ----------------------------------------------------------------
             Standard Nuclear Orientation (Bohr)
    I     Atom           X                Y                Z
 ----------------------------------------------------------------
    1      O       0.0037452734    -0.7785388129     0.0219686406
    2      H      -1.2161704686     0.2849900467    -0.1382074645
    3      H       1.2148763257     0.2964096248    -0.1525625084
    4      F      -2.8427857675     0.2497650100     0.0486153877
    5      F       2.8397927829     0.2484655276     0.0505691963
 ----------------------------------------------------------------
 Molecular Point Group                 C1    NOp =  1
 Largest Abelian Subgroup              C1    NOp =  1
 Nuclear Repulsion Energy =          87.57482712 hartrees
 There are       15 alpha and       15 beta electrons

                       Distance Matrix (Bohrs)
             O (  1)   H (  2)   H (  3)   F (  4)
   H (  2)  1.626329
   H (  3)  1.628746  2.431116
   F (  4)  3.026691  1.637688  4.062914
   F (  5)  3.016409  4.060518  1.638266  5.682579
 
 Applying Cartesian multipole field
    Component          Value
    ---------          -----
     (2,0,0)        1.00000E-10
     (0,2,0)        2.00000E-10
     (0,0,2)       -3.00000E-10
 Nucleus-field energy     = 1.6026645851e-08 hartrees
 Requested basis set is 6-31G
 There are 13 shells and 31 basis functions
 A cutoff of  1.0D-12 yielded     86 shell pairs
 There are       521 function pairs
 Smallest overlap matrix eigenvalue = 2.22E-02
 Guess MOs from SCF MO coefficient file

 -----------------------------------------------------------------------
  General SCF calculation program by
  Eric Jon Sundstrom, Paul Horn, Yuezhi Mao, Dmitri Zuev, Alec White,
  David Stuck, Shaama M.S., Shane Yost, Joonho Lee, David Small,
  Daniel Levine, Susi Lehtola, Hugh Burton, Evgeny Epifanovsky,
  Bang C. Huynh
 -----------------------------------------------------------------------
 Hartree-Fock
 A restricted SCF calculation will be
 performed using DIIS
 SCF converges when DIIS error is below 1.0e-08
 ---------------------------------------
  Cycle       Energy         DIIS error
 ---------------------------------------
    1    -273.3177554211      1.77e-02  
    2    -273.7078003705      4.15e-02  
    3    -273.7443930303      3.62e-02  
    4    -273.8616480673      9.57e-03  
    5    -273.8714250113      1.53e-03  
    6    -273.8716835619      3.14e-04  
    7    -273.8717089513      6.01e-05  
    8    -273.8717103756      1.29e-05  
    9    -273.8717104617      3.51e-06  
   10    -273.8717104710      1.12e-06  
   11    -273.8717104721      2.59e-07  
   12    -273.8717104721      8.92e-08  
   13    -273.8717104721      2.23e-08  
   14    -273.8717104721      6.71e-09  Convergence criterion met
 ---------------------------------------
 SCF time:   CPU 1.21s  wall 0.00s 
 SCF   energy in the final basis set =     -273.8717104721
 Total energy in the final basis set =     -273.8717104721
 
 --------------------------------------------------------------
 
                    Orbital Energies (a.u.)
 --------------------------------------------------------------
 
 Alpha MOs
 -- Occupied --
-25.5661 -25.5653 -19.6933  -1.0608  -0.9994  -0.6397  -0.2680  -0.0925
 -0.0352  -0.0187  -0.0097   0.0196   0.1993   0.2379   0.3428
 -- Virtual --
  0.8374   1.0341   1.7799   1.8413   1.8504   2.0851   2.1030   2.1148
  2.2080   2.2091   2.2965   2.4150   2.4197   2.6064   2.7705   3.2261
 --------------------------------------------------------------
 
          Ground-State Mulliken Net Atomic Charges

     Atom                 Charge (a.u.)
  ----------------------------------------
      1 O                    -1.239926
      2 H                     0.319932
      3 H                     0.320070
      4 F                    -0.700960
      5 F                    -0.699116
  ----------------------------------------
  Sum of atomic charges =    -2.000000

 -----------------------------------------------------------------
                    Cartesian Multipole Moments
 -----------------------------------------------------------------
    Charge (ESU x 10^10)
                -9.6064
    Dipole Moment (Debye)
         X      -0.0050      Y       2.7633      Z      -0.5756
       Tot       2.8226
    Quadrupole Moments (Debye-Ang)
        XX     -36.6937     XY       0.0147     YY     -20.4690
        XZ      -0.0161     YZ      -0.0767     ZZ     -18.7028
    Octopole Moments (Debye-Ang^2)
       XXX       0.0206    XXY      -2.5050    XYY      -0.0075
       YYY       4.9694    XXZ      -0.8545    XYZ      -0.0015
       YYZ      -0.2404    XZZ      -0.0070    YZZ       1.5259
       ZZZ      -0.8136
    Hexadecapole Moments (Debye-Ang^3)
      XXXX    -216.4705   XXXY       0.0323   XXYY     -31.4701
      XYYY       0.0291   YYYY     -22.0148   XXXZ      -0.0298
      XXYZ      -0.1358   XYYZ      -0.0062   YYYZ      -0.0464
      XXZZ     -29.5117   XYZZ       0.0095   YYZZ      -5.7192
      XZZZ      -0.0150   YZZZ      -0.0039   ZZZZ     -12.2765
 -----------------------------------------------------------------
 Calculating analytic gradient of the SCF energy
 Gradient of SCF Energy
            1           2           3           4           5
    1   0.0055006  -0.0831565   0.0845434   0.7525656  -0.7594531
    2   0.4928142  -0.0507193  -0.0532463  -0.1938825  -0.1949660
    3  -0.0035794   0.0337833   0.0376904  -0.0325580  -0.0353364
 Max gradient component =       7.595E-01
 RMS gradient           =       3.147E-01
 Gradient time:  CPU 0.55 s  wall 0.27 s

     Step 3	:
        Energy is -273.8717104721
                            Maximum         Tolerance       Converged?
         Gradient           7.99644194e-01	3.00000000e-04	false
         Displacement       5.08094554e-01	1.20000000e-03	false
         Energy change      8.98819368e-01	1.00000000e-06	false


	OPTIMIZATION CYCLE:	4

 Scaling Magnitude of Eigenvalues
 	Minimum: -25.00000000	 Maximum: 25.00000000
 9 Hessian Eigenvalues to form next step
   0.09385370   0.10962909   0.11738090   0.14141379   0.23887652
   0.50584286   0.58594801   0.59710664   1.03793985

 Minimum Search taking a RFO step
 Searching for Lambda that minimizes along all modes
	Value of Lambda   -0.74117781
	Norm  of Stepsize  0.90000000
	RMS   of Stepsize  0.30000000

	Performing Iterative Coordinate Back-Transformation

	  Starting from Previous Position

	  iter:	0	rms: 1.7384780709e-01	maxdev: 4.6063139892e-01
	  iter:	1	rms: 1.1079070739e-03	maxdev: 1.6818388672e-03
	  iter:	2	rms: 4.3627748246e-06	maxdev: 8.9645232877e-06
	  iter:	3	rms: 1.2350998238e-10	maxdev: 2.6794393579e-10	 Success!

	Finished Iterative Coordinate Back-Transformation
 ----------------------------------------------------------------
             Standard Nuclear Orientation (Bohr)
    I     Atom           X                Y                Z
 ----------------------------------------------------------------
    1      O       0.0021167328    -0.8730795350     0.0259437098
    2      H      -1.3149659134     0.3047956658    -0.1484102629
    3      H       1.3122489505     0.3154077888    -0.1630545263
    4      F      -3.3014426320     0.2770033837     0.0569467870
    5      F       3.3015010079     0.2769640927     0.0589575440
 ----------------------------------------------------------------
 Molecular Point Group                 C1    NOp =  1
 Largest Abelian Subgroup              C1    NOp =  1
 Nuclear Repulsion Energy =          75.73597301 hartrees
 There are       15 alpha and       15 beta electrons

                       Distance Matrix (Bohrs)
             O (  1)   H (  2)   H (  3)   F (  4)
   H (  2)  1.775527
   H (  3)  1.778952  2.627277
   F (  4)  3.498165  1.997257  4.619094
   F (  5)  3.494228  4.621206  2.001972  6.602944
 
 Applying Cartesian multipole field
    Component          Value
    ---------          -----
     (2,0,0)        1.00000E-10
     (0,2,0)        2.00000E-10
     (0,0,2)       -3.00000E-10
 Nucleus-field energy     = 2.1464562831e-08 hartrees
 Requested basis set is 6-31G
 There are 13 shells and 31 basis functions
 A cutoff of  1.0D-12 yielded     85 shell pairs
 There are       505 function pairs
 Smallest overlap matrix eigenvalue = 3.20E-02
 Guess MOs from SCF MO coefficient file

 -----------------------------------------------------------------------
  General SCF calculation program by
  Eric Jon Sundstrom, Paul Horn, Yuezhi Mao, Dmitri Zuev, Alec White,
  David Stuck, Shaama M.S., Shane Yost, Joonho Lee, David Small,
  Daniel Levine, Susi Lehtola, Hugh Burton, Evgeny Epifanovsky,
  Bang C. Huynh
 -----------------------------------------------------------------------
 Hartree-Fock
 A restricted SCF calculation will be
 performed using DIIS
 SCF converges when DIIS error is below 1.0e-08
 ---------------------------------------
  Cycle       Energy         DIIS error
 ---------------------------------------
    1    -274.3073835118      1.90e-02  
    2    -274.3483899839      3.77e-03  
    3    -274.3504723040      1.53e-03  
    4    -274.3507068955      2.87e-04  
    5    -274.3507248905      6.27e-05  
    6    -274.3507253611      1.56e-05  
    7    -274.3507254240      3.15e-06  
    8    -274.3507254273      5.12e-07  
    9    -274.3507254274      9.74e-08  
   10    -274.3507254274      3.55e-08  
   11    -274.3507254274      9.51e-09  Convergence criterion met
 ---------------------------------------
 SCF time:   CPU 1.02s  wall 0.00s 
 SCF   energy in the final basis set =     -274.3507254274
 Total energy in the final basis set =     -274.3507254274
 
 --------------------------------------------------------------
 
                    Orbital Energies (a.u.)
 --------------------------------------------------------------
 
 Alpha MOs
 -- Occupied --
-25.6040 -25.6032 -19.8311  -0.9729  -0.9456  -0.7000  -0.2250  -0.0893
 -0.0266  -0.0168  -0.0134  -0.0072   0.1155   0.1548   0.1976
 -- Virtual --
  0.8126   1.0169   1.6268   1.7637   1.7921   1.9608   2.0305   2.0693
  2.1223   2.1502   2.1537   2.1607   2.3187   2.5032   2.7485   3.0847
 --------------------------------------------------------------
 
          Ground-State Mulliken Net Atomic Charges

     Atom                 Charge (a.u.)
  ----------------------------------------
      1 O                    -1.170715
      2 H                     0.419143
      3 H                     0.418765
      4 F                    -0.833608
      5 F                    -0.833585
  ----------------------------------------
  Sum of atomic charges =    -2.000000

 -----------------------------------------------------------------
                    Cartesian Multipole Moments
 -----------------------------------------------------------------
    Charge (ESU x 10^10)
                -9.6064
    Dipole Moment (Debye)
         X      -0.0155      Y       2.4689      Z      -0.6531
       Tot       2.5539
    Quadrupole Moments (Debye-Ang)
        XX     -43.2746     XY       0.0110     YY     -20.5544
        XZ      -0.0191     YZ      -0.0826     ZZ     -18.8682
    Octopole Moments (Debye-Ang^2)
       XXX      -0.0395    XXY      -3.4798    XYY      -0.0124
       YYY       5.0432    XXZ      -1.2496    XYZ      -0.0017
       YYZ      -0.3138    XZZ      -0.0114    YZZ       1.5468
       ZZZ      -1.0120
    Hexadecapole Moments (Debye-Ang^3)
      XXXX    -306.9302   XXXY       0.0018   XXYY     -40.9048
      XYYY       0.0068   YYYY     -23.4589   XXXZ      -0.0487
      XXYZ      -0.1907   XYYZ      -0.0090   YYYZ      -0.0468
      XXZZ     -38.5968   XYZZ       0.0020   YYZZ      -5.9598
      XZZZ      -0.0215   YZZZ       0.0043   ZZZZ     -12.2331
 -----------------------------------------------------------------
 Calculating analytic gradient of the SCF energy
 Gradient of SCF Energy
            1           2           3           4           5
    1  -0.0004419  -0.0054206   0.0058300   0.2948559  -0.2948234
    2   0.1222454   0.0276260   0.0283706  -0.0890358  -0.0892062
    3   0.0138411   0.0001807   0.0007547  -0.0071565  -0.0076200
 Max gradient component =       2.949E-01
 RMS gradient           =       1.174E-01
 Gradient time:  CPU 0.52 s  wall 0.21 s

     Step 4	:
        Energy is -274.3507254274
                            Maximum         Tolerance       Converged?
         Gradient           3.13414074e-01	3.00000000e-04	false
         Displacement       8.67627336e-01	1.20000000e-03	false
         Energy change      4.79014955e-01	1.00000000e-06	false


	OPTIMIZATION CYCLE:	5

 Scaling Magnitude of Eigenvalues
 	Minimum: -25.00000000	 Maximum: 25.00000000
 9 Hessian Eigenvalues to form next step
   0.10908023   0.10999627   0.13961650   0.14397360   0.50567469
   0.53851112   0.59648358   0.61265005   1.03901761

 Minimum Search taking a RFO step
 Searching for Lambda that minimizes along all modes
	Value of Lambda   -0.14646242
	Norm  of Stepsize  0.45873616
	RMS   of Stepsize  0.15291205

	Performing Iterative Coordinate Back-Transformation

	  Starting from Previous Position

	  iter:	0	rms: 9.0657778228e-02	maxdev: 2.4005112218e-01
	  iter:	1	rms: 4.0210920610e-04	maxdev: 9.3163612015e-04
	  iter:	2	rms: 1.9275035002e-07	maxdev: 2.9377415468e-07	 Success!

	Finished Iterative Coordinate Back-Transformation
 ----------------------------------------------------------------
             Standard Nuclear Orientation (Bohr)
    I     Atom           X                Y                Z
 ----------------------------------------------------------------
    1      O       0.0024673922    -0.9054097575     0.0268587074
    2      H      -1.3736150657     0.3104166030    -0.1496606817
    3      H       1.3712299118     0.3199309145    -0.1640211708
    4      F      -3.5419518553     0.2878320231     0.0577247731
    5      F       3.5413277629     0.2883216130     0.0594816237
 ----------------------------------------------------------------
 Molecular Point Group                 C1    NOp =  1
 Largest Abelian Subgroup              C1    NOp =  1
 Nuclear Repulsion Energy =          70.91253977 hartrees
 There are       15 alpha and       15 beta electrons

                       Distance Matrix (Bohrs)
             O (  1)   H (  2)   H (  3)   F (  4)
   H (  2)  1.844721
   H (  3)  1.846999  2.744899
   F (  4)  3.740012  2.178349  4.918288
   F (  5)  3.734915  4.919440  2.181806  7.083280
 
 Applying Cartesian multipole field
    Component          Value
    ---------          -----
     (2,0,0)        1.00000E-10
     (0,2,0)        2.00000E-10
     (0,0,2)       -3.00000E-10
 Nucleus-field energy     = 2.4569553010e-08 hartrees
 Requested basis set is 6-31G
 There are 13 shells and 31 basis functions
 A cutoff of  1.0D-12 yielded     85 shell pairs
 There are       505 function pairs
 Smallest overlap matrix eigenvalue = 3.84E-02
 Guess MOs from SCF MO coefficient file

 -----------------------------------------------------------------------
  General SCF calculation program by
  Eric Jon Sundstrom, Paul Horn, Yuezhi Mao, Dmitri Zuev, Alec White,
  David Stuck, Shaama M.S., Shane Yost, Joonho Lee, David Small,
  Daniel Levine, Susi Lehtola, Hugh Burton, Evgeny Epifanovsky,
  Bang C. Huynh
 -----------------------------------------------------------------------
 Hartree-Fock
 A restricted SCF calculation will be
 performed using DIIS
 SCF converges when DIIS error is below 1.0e-08
 ---------------------------------------
  Cycle       Energy         DIIS error
 ---------------------------------------
    1    -274.4609810988      6.68e-03  
    2    -274.4663926875      1.34e-03  
    3    -274.4666899403      5.22e-04  
    4    -274.4667186232      1.15e-04  
    5    -274.4667214095      2.50e-05  
    6    -274.4667214789      6.35e-06  
    7    -274.4667214879      1.16e-06  
    8    -274.4667214883      2.17e-07  
    9    -274.4667214883      4.35e-08  
   10    -274.4667214883      1.38e-08  
   11    -274.4667214883      3.36e-09  Convergence criterion met
 ---------------------------------------
 SCF time:   CPU 1.00s  wall 0.00s 
 SCF   energy in the final basis set =     -274.4667214883
 Total energy in the final basis set =     -274.4667214883
 
 --------------------------------------------------------------
 
                    Orbital Energies (a.u.)
 --------------------------------------------------------------
 
 Alpha MOs
 -- Occupied --
-25.6188 -25.6180 -19.8896  -0.9517  -0.9346  -0.7239  -0.2094  -0.0894
 -0.0267  -0.0189  -0.0171  -0.0142   0.0821   0.1178   0.1450
 -- Virtual --
  0.7999   0.9921   1.5809   1.7293   1.7631   1.7961   1.9291   2.0628
  2.1011   2.1321   2.1470   2.1513   2.2944   2.4575   2.7395   2.9673
 --------------------------------------------------------------
 
          Ground-State Mulliken Net Atomic Charges

     Atom                 Charge (a.u.)
  ----------------------------------------
      1 O                    -1.143174
      2 H                     0.430256
      3 H                     0.429296
      4 F                    -0.858316
      5 F                    -0.858062
  ----------------------------------------
  Sum of atomic charges =    -2.000000

 -----------------------------------------------------------------
                    Cartesian Multipole Moments
 -----------------------------------------------------------------
    Charge (ESU x 10^10)
                -9.6064
    Dipole Moment (Debye)
         X      -0.0131      Y       2.3260      Z      -0.6627
       Tot       2.4186
    Quadrupole Moments (Debye-Ang)
        XX     -47.0979     XY       0.0087     YY     -20.5962
        XZ      -0.0188     YZ      -0.0830     ZZ     -18.9592
    Octopole Moments (Debye-Ang^2)
       XXX      -0.0172    XXY      -4.1096    XYY      -0.0117
       YYY       5.0114    XXZ      -1.3925    XYZ      -0.0016
       YYZ      -0.3279    XZZ      -0.0093    YZZ       1.5367
       ZZZ      -1.0382
    Hexadecapole Moments (Debye-Ang^3)
      XXXX    -364.1339   XXXY      -0.0093   XXYY     -46.4322
      XYYY       0.0014   YYYY     -24.0430   XXXZ      -0.0474
      XXYZ      -0.2109   XYYZ      -0.0084   YYYZ      -0.0411
      XXZZ     -43.9353   XYZZ       0.0003   YYZZ      -6.0647
      XZZZ      -0.0194   YZZZ       0.0094   ZZZZ     -12.2726
 -----------------------------------------------------------------
 Calculating analytic gradient of the SCF energy
 Gradient of SCF Energy
            1           2           3           4           5
    1   0.0003305  -0.0001870   0.0004235   0.1827557  -0.1833227
    2   0.0241859   0.0486488   0.0492589  -0.0608642  -0.0612294
    3   0.0180036  -0.0070055  -0.0069861  -0.0019388  -0.0020732
 Max gradient component =       1.833E-01
 RMS gradient           =       7.315E-02
 Gradient time:  CPU 0.40 s  wall 0.20 s

     Step 5	:
        Energy is -274.4667214883
                            Maximum         Tolerance       Converged?
         Gradient           1.89815118e-01	3.00000000e-04	false
         Displacement       4.47820500e-01	1.20000000e-03	false
         Energy change      1.15996061e-01	1.00000000e-06	false


	OPTIMIZATION CYCLE:	6

 Scaling Magnitude of Eigenvalues
 	Minimum: -25.00000000	 Maximum: 25.00000000
 9 Hessian Eigenvalues to form next step
   0.10908580   0.11000382   0.13958835   0.14394823   0.26473912
   0.50594555   0.59627532   0.60708129   1.04793593

 Minimum Search taking a RFO step
 Searching for Lambda that minimizes along all modes
	Value of Lambda   -0.10446831
	Norm  of Stepsize  0.53237186
	RMS   of Stepsize  0.17745729

	Performing Iterative Coordinate Back-Transformation

	  Starting from Previous Position

	  iter:	0	rms: 1.0616116103e-01	maxdev: 2.8216139925e-01
	  iter:	1	rms: 6.8539158628e-04	maxdev: 1.9219603493e-03
	  iter:	2	rms: 5.8984023179e-07	maxdev: 9.8694240233e-07	 Success!

	Finished Iterative Coordinate Back-Transformation
 ----------------------------------------------------------------
             Standard Nuclear Orientation (Bohr)
    I     Atom           X                Y                Z
 ----------------------------------------------------------------
    1      O       0.0026751618    -0.9216452188     0.0267265455
    2      H      -1.4426518247     0.3116449111    -0.1487399169
    3      H       1.4404209720     0.3201270365    -0.1628228129
    4      F      -3.8247697754     0.2949530471     0.0568604051
    5      F       3.8237836122     0.2960116201     0.0583590309
 ----------------------------------------------------------------
 Molecular Point Group                 C1    NOp =  1
 Largest Abelian Subgroup              C1    NOp =  1
 Nuclear Repulsion Energy =          66.13910480 hartrees
 There are       15 alpha and       15 beta electrons

                       Distance Matrix (Bohrs)
             O (  1)   H (  2)   H (  3)   F (  4)
   H (  2)  1.908078
   H (  3)  1.909199  2.883120
   F (  4)  4.016261  2.391032  5.269832
   F (  5)  4.010556  5.270529  2.393725  7.648554
 
 Applying Cartesian multipole field
    Component          Value
    ---------          -----
     (2,0,0)        1.00000E-10
     (0,2,0)        2.00000E-10
     (0,0,2)       -3.00000E-10
 Nucleus-field energy     = 2.8419873045e-08 hartrees
 Requested basis set is 6-31G
 There are 13 shells and 31 basis functions
 A cutoff of  1.0D-12 yielded     85 shell pairs
 There are       505 function pairs
 Smallest overlap matrix eigenvalue = 4.40E-02
 Guess MOs from SCF MO coefficient file

 -----------------------------------------------------------------------
  General SCF calculation program by
  Eric Jon Sundstrom, Paul Horn, Yuezhi Mao, Dmitri Zuev, Alec White,
  David Stuck, Shaama M.S., Shane Yost, Joonho Lee, David Small,
  Daniel Levine, Susi Lehtola, Hugh Burton, Evgeny Epifanovsky,
  Bang C. Huynh
 -----------------------------------------------------------------------
 Hartree-Fock
 A restricted SCF calculation will be
 performed using DIIS
 SCF converges when DIIS error is below 1.0e-08
 ---------------------------------------
  Cycle       Energy         DIIS error
 ---------------------------------------
    1    -274.5412844395      6.16e-03  
    2    -274.5460577822      1.27e-03  
    3    -274.5463309163      5.60e-04  
    4    -274.5463635611      1.16e-04  
    5    -274.5463666634      2.67e-05  
    6    -274.5463667456      7.16e-06  
    7    -274.5463667564      1.11e-06  
    8    -274.5463667568      2.18e-07  
    9    -274.5463667568      4.52e-08  
   10    -274.5463667568      1.07e-08  
   11    -274.5463667568      3.69e-09  Convergence criterion met
 ---------------------------------------
 SCF time:   CPU 0.87s  wall 1.00s 
 SCF   energy in the final basis set =     -274.5463667568
 Total energy in the final basis set =     -274.5463667568
 
 --------------------------------------------------------------
 
                    Orbital Energies (a.u.)
 --------------------------------------------------------------
 
 Alpha MOs
 -- Occupied --
-25.6312 -25.6305 -19.9485  -0.9373  -0.9274  -0.7504  -0.1980  -0.0884
 -0.0277  -0.0215  -0.0207  -0.0195   0.0491   0.0784   0.0957
 -- Virtual --
  0.7846   0.9541   1.5551   1.6551   1.6956   1.7390   1.8478   2.0573
  2.0738   2.1059   2.1433   2.1447   2.2648   2.3868   2.7261   2.8266
 --------------------------------------------------------------
 
          Ground-State Mulliken Net Atomic Charges

     Atom                 Charge (a.u.)
  ----------------------------------------
      1 O                    -1.112776
      2 H                     0.430329
      3 H                     0.429268
      4 F                    -0.873490
      5 F                    -0.873331
  ----------------------------------------
  Sum of atomic charges =    -2.000000

 -----------------------------------------------------------------
                    Cartesian Multipole Moments
 -----------------------------------------------------------------
    Charge (ESU x 10^10)
                -9.6064
    Dipole Moment (Debye)
         X      -0.0119      Y       2.1558      Z      -0.6590
       Tot       2.2543
    Quadrupole Moments (Debye-Ang)
        XX     -52.0001     XY       0.0055     YY     -20.5865
        XZ      -0.0185     YZ      -0.0826     ZZ     -19.0416
    Octopole Moments (Debye-Ang^2)
       XXX      -0.0043    XXY      -4.9007    XYY      -0.0118
       YYY       4.8632    XXZ      -1.5262    XYZ      -0.0015
       YYZ      -0.3302    XZZ      -0.0079    YZZ       1.4946
       ZZZ      -1.0289
    Hexadecapole Moments (Debye-Ang^3)
      XXXX    -441.7963   XXXY      -0.0299   XXYY     -53.3701
      XYYY      -0.0077   YYYY     -24.2621   XXXZ      -0.0457
      XXYZ      -0.2297   XYYZ      -0.0077   YYYZ      -0.0358
      XXZZ     -50.7170   XYZZ      -0.0027   YYZZ      -6.1081
      XZZZ      -0.0169   YZZZ       0.0109   ZZZZ     -12.3128
 -----------------------------------------------------------------
 Calculating analytic gradient of the SCF energy
 Gradient of SCF Energy
            1           2           3           4           5
    1   0.0006024  -0.0027880   0.0027590   0.1037664  -0.1043399
    2  -0.0422392   0.0610419   0.0615230  -0.0399924  -0.0403333
    3   0.0200449  -0.0109547  -0.0113287   0.0010860   0.0011525
 Max gradient component =       1.043E-01
 RMS gradient           =       4.820E-02
 Gradient time:  CPU 0.43 s  wall 0.21 s

     Step 6	:
        Energy is -274.5463667568
                            Maximum         Tolerance       Converged?
         Gradient           1.01129236e-01	3.00000000e-04	false
         Displacement       5.15880056e-01	1.20000000e-03	false
         Energy change      7.96452685e-02	1.00000000e-06	false


	OPTIMIZATION CYCLE:	7

 Scaling Magnitude of Eigenvalues
 	Minimum: -25.00000000	 Maximum: 25.00000000
 9 Hessian Eigenvalues to form next step
   0.10909260   0.11000990   0.13931561   0.14354155   0.15971098
   0.50596877   0.59641685   0.61331046   1.05969048

 Minimum Search taking a RFO step
 Searching for Lambda that minimizes along all modes
	Value of Lambda   -0.05777791
	Norm  of Stepsize  0.51579231
	RMS   of Stepsize  0.17193077

	Performing Iterative Coordinate Back-Transformation

	  Starting from Previous Position

	  iter:	0	rms: 1.0287876898e-01	maxdev: 2.7427286868e-01
	  iter:	1	rms: 7.2512083773e-04	maxdev: 2.2015498046e-03
	  iter:	2	rms: 7.5082520109e-07	maxdev: 1.2002003360e-06	 Success!

	Finished Iterative Coordinate Back-Transformation
 ----------------------------------------------------------------
             Standard Nuclear Orientation (Bohr)
    I     Atom           X                Y                Z
 ----------------------------------------------------------------
    1      O       0.0028694424    -0.9132390577     0.0252055750
    2      H      -1.5070701618     0.3068196900    -0.1450150855
    3      H       1.5050257082     0.3143402706    -0.1587336056
    4      F      -4.0994816570     0.2957999640     0.0538522578
    5      F       4.0981148141     0.2973705292     0.0550741099
 ----------------------------------------------------------------
 Molecular Point Group                 C1    NOp =  1
 Largest Abelian Subgroup              C1    NOp =  1
 Nuclear Repulsion Energy =          62.24768913 hartrees
 There are       15 alpha and       15 beta electrons

                       Distance Matrix (Bohrs)
             O (  1)   H (  2)   H (  3)   F (  4)
   H (  2)  1.948701
   H (  3)  1.948655  3.012136
   F (  4)  4.276901  2.600051  5.608568
   F (  5)  4.270539  5.608763  2.601944  8.197597
 
 Applying Cartesian multipole field
    Component          Value
    ---------          -----
     (2,0,0)        1.00000E-10
     (0,2,0)        2.00000E-10
     (0,0,2)       -3.00000E-10
 Nucleus-field energy     = 3.2352162955e-08 hartrees
 Requested basis set is 6-31G
 There are 13 shells and 31 basis functions
 A cutoff of  1.0D-12 yielded     85 shell pairs
 There are       505 function pairs
 Smallest overlap matrix eigenvalue = 4.69E-02
 Guess MOs from SCF MO coefficient file

 -----------------------------------------------------------------------
  General SCF calculation program by
  Eric Jon Sundstrom, Paul Horn, Yuezhi Mao, Dmitri Zuev, Alec White,
  David Stuck, Shaama M.S., Shane Yost, Joonho Lee, David Small,
  Daniel Levine, Susi Lehtola, Hugh Burton, Evgeny Epifanovsky,
  Bang C. Huynh
 -----------------------------------------------------------------------
 Hartree-Fock
 A restricted SCF calculation will be
 performed using DIIS
 SCF converges when DIIS error is below 1.0e-08
 ---------------------------------------
  Cycle       Energy         DIIS error
 ---------------------------------------
    1    -274.5877297187      4.63e-03  
    2    -274.5905102427      1.00e-03  
    3    -274.5906766970      4.86e-04  
    4    -274.5907016064      9.64e-05  
    5    -274.5907039840      2.25e-05  
    6    -274.5907040505      6.72e-06  
    7    -274.5907040595      9.41e-07  
    8    -274.5907040598      2.00e-07  
    9    -274.5907040598      3.83e-08  
   10    -274.5907040598      6.45e-09  Convergence criterion met
 ---------------------------------------
 SCF time:   CPU 0.86s  wall 0.00s 
 SCF   energy in the final basis set =     -274.5907040598
 Total energy in the final basis set =     -274.5907040598
 
 --------------------------------------------------------------
 
                    Orbital Energies (a.u.)
 --------------------------------------------------------------
 
 Alpha MOs
 -- Occupied --
-25.6393 -25.6387 -19.9965  -0.9296  -0.9235  -0.7759  -0.1953  -0.0875
 -0.0291  -0.0237  -0.0234  -0.0229   0.0229   0.0439   0.0579
 -- Virtual --
  0.7687   0.9163   1.5492   1.5728   1.6678   1.7121   1.8031   2.0534
  2.0543   2.0857   2.1325   2.1399   2.2351   2.3083   2.7032   2.7083
 --------------------------------------------------------------
 
          Ground-State Mulliken Net Atomic Charges

     Atom                 Charge (a.u.)
  ----------------------------------------
      1 O                    -1.087909
      2 H                     0.426577
      3 H                     0.425744
      4 F                    -0.882201
      5 F                    -0.882211
  ----------------------------------------
  Sum of atomic charges =    -2.000000

 -----------------------------------------------------------------
                    Cartesian Multipole Moments
 -----------------------------------------------------------------
    Charge (ESU x 10^10)
                -9.6064
    Dipole Moment (Debye)
         X      -0.0106      Y       1.9884      Z      -0.6381
       Tot       2.0883
    Quadrupole Moments (Debye-Ang)
        XX     -57.1866     XY       0.0021     YY     -20.5133
        XZ      -0.0179     YZ      -0.0801     ZZ     -19.0911
    Octopole Moments (Debye-Ang^2)
       XXX       0.0106    XXY      -5.6821    XYY      -0.0117
       YYY       4.5949    XXZ      -1.5995    XYZ      -0.0014
       YYZ      -0.3151    XZZ      -0.0063    YZZ       1.4190
       ZZZ      -0.9730
    Hexadecapole Moments (Debye-Ang^3)
      XXXX    -529.2674   XXXY      -0.0552   XXYY     -60.5114
      XYYY      -0.0176   YYYY     -23.9172   XXXZ      -0.0413
      XXYZ      -0.2383   XYYZ      -0.0065   YYYZ      -0.0321
      XXZZ     -57.7994   XYZZ      -0.0060   YYZZ      -6.0527
      XZZZ      -0.0135   YZZZ       0.0086   ZZZZ     -12.3267
 -----------------------------------------------------------------
 Calculating analytic gradient of the SCF energy
 Gradient of SCF Energy
            1           2           3           4           5
    1   0.0007540  -0.0094074   0.0091494   0.0584096  -0.0589057
    2  -0.0735224   0.0640999   0.0644265  -0.0273647  -0.0276393
    3   0.0198577  -0.0120303  -0.0126083   0.0023144   0.0024666
 Max gradient component =       7.352E-02
 RMS gradient           =       3.911E-02
 Gradient time:  CPU 0.44 s  wall 0.20 s

     Step 7	:
        Energy is -274.5907040598
                            Maximum         Tolerance       Converged?
         Gradient           4.96633278e-02	3.00000000e-04	false
         Displacement       4.88508460e-01	1.20000000e-03	false
         Energy change      4.43373030e-02	1.00000000e-06	false


	OPTIMIZATION CYCLE:	8

 Scaling Magnitude of Eigenvalues
 	Minimum: -25.00000000	 Maximum: 25.00000000
 9 Hessian Eigenvalues to form next step
   0.09233578   0.10910076   0.11001642   0.13985780   0.14436587
   0.50599164   0.59646769   0.61737976   1.06344362

 Minimum Search taking a RFO step
 Searching for Lambda that minimizes along all modes
	Value of Lambda   -0.03419181
	Norm  of Stepsize  0.51329274
	RMS   of Stepsize  0.17109758

	Performing Iterative Coordinate Back-Transformation

	  Starting from Previous Position

	  iter:	0	rms: 1.0142649808e-01	maxdev: 2.7053172998e-01
	  iter:	1	rms: 7.4003049559e-04	maxdev: 2.2241333800e-03
	  iter:	2	rms: 8.0054491516e-07	maxdev: 1.3944564516e-06	 Success!

	Finished Iterative Coordinate Back-Transformation
 ----------------------------------------------------------------
             Standard Nuclear Orientation (Bohr)
    I     Atom           X                Y                Z
 ----------------------------------------------------------------
    1      O       0.0030617658    -0.8805951581     0.0223741209
    2      H      -1.5649037219     0.2962191997    -0.1388394000
    3      H       1.5631269757     0.3028621216    -0.1520687509
    4      F      -4.3700758316     0.2902941003     0.0489999606
    5      F       4.3682489579     0.2923111325     0.0499173211
 ----------------------------------------------------------------
 Molecular Point Group                 C1    NOp =  1
 Largest Abelian Subgroup              C1    NOp =  1
 Nuclear Repulsion Energy =          58.99146622 hartrees
 There are       15 alpha and       15 beta electrons

                       Distance Matrix (Bohrs)
             O (  1)   H (  2)   H (  3)   F (  4)
   H (  2)  1.967078
   H (  3)  1.965911  3.128066
   F (  4)  4.527253  2.811460  5.936622
   F (  5)  4.520103  5.936156  2.812404  8.738325
 
 Applying Cartesian multipole field
    Component          Value
    ---------          -----
     (2,0,0)        1.00000E-10
     (0,2,0)        2.00000E-10
     (0,0,2)       -3.00000E-10
 Nucleus-field energy     = 3.6405450226e-08 hartrees
 Requested basis set is 6-31G
 There are 13 shells and 31 basis functions
 A cutoff of  1.0D-12 yielded     85 shell pairs
 There are       505 function pairs
 Smallest overlap matrix eigenvalue = 4.95E-02
 Guess MOs from SCF MO coefficient file

 -----------------------------------------------------------------------
  General SCF calculation program by
  Eric Jon Sundstrom, Paul Horn, Yuezhi Mao, Dmitri Zuev, Alec White,
  David Stuck, Shaama M.S., Shane Yost, Joonho Lee, David Small,
  Daniel Levine, Susi Lehtola, Hugh Burton, Evgeny Epifanovsky,
  Bang C. Huynh
 -----------------------------------------------------------------------
 Hartree-Fock
 A restricted SCF calculation will be
 performed using DIIS
 SCF converges when DIIS error is below 1.0e-08
 ---------------------------------------
  Cycle       Energy         DIIS error
 ---------------------------------------
    1    -274.6151123992      3.64e-03  
    2    -274.6168687244      8.45e-04  
    3    -274.6169777876      4.39e-04  
    4    -274.6169985145      8.20e-05  
    5    -274.6170004256      1.84e-05  
    6    -274.6170004815      6.38e-06  
    7    -274.6170004887      8.47e-07  
    8    -274.6170004889      1.96e-07  
    9    -274.6170004889      3.22e-08  
   10    -274.6170004889      4.21e-09  Convergence criterion met
 ---------------------------------------
 SCF time:   CPU 0.91s  wall 0.00s 
 SCF   energy in the final basis set =     -274.6170004889
 Total energy in the final basis set =     -274.6170004889
 
 --------------------------------------------------------------
 
                    Orbital Energies (a.u.)
 --------------------------------------------------------------
 
 Alpha MOs
 -- Occupied --
-25.6446 -25.6440 -20.0362  -0.9252  -0.9212  -0.8019  -0.2020  -0.0880
 -0.0308  -0.0256  -0.0255  -0.0252   0.0026   0.0136   0.0291
 -- Virtual --
  0.7513   0.8836   1.5256   1.5538   1.6433   1.6862   1.7868   2.0417
  2.0509   2.0711   2.1185   2.1348   2.2043   2.2302   2.6067   2.6821
 --------------------------------------------------------------
 
          Ground-State Mulliken Net Atomic Charges

     Atom                 Charge (a.u.)
  ----------------------------------------
      1 O                    -1.068870
      2 H                     0.423569
      3 H                     0.423066
      4 F                    -0.888810
      5 F                    -0.888955
  ----------------------------------------
  Sum of atomic charges =    -2.000000

 -----------------------------------------------------------------
                    Cartesian Multipole Moments
 -----------------------------------------------------------------
    Charge (ESU x 10^10)
                -9.6064
    Dipole Moment (Debye)
         X      -0.0087      Y       1.8222      Z      -0.6022
       Tot       1.9192
    Quadrupole Moments (Debye-Ang)
        XX     -62.7177     XY      -0.0012     YY     -20.3838
        XZ      -0.0169     YZ      -0.0750     ZZ     -19.1106
    Octopole Moments (Debye-Ang^2)
       XXX       0.0328    XXY      -6.4126    XYY      -0.0111
       YYY       4.2104    XXZ      -1.6052    XYZ      -0.0013
       YYZ      -0.2844    XZZ      -0.0046    YZZ       1.3097
       ZZZ      -0.8761
    Hexadecapole Moments (Debye-Ang^3)
      XXXX    -628.5381   XXXY      -0.0835   XXYY     -67.8991
      XYYY      -0.0278   YYYY     -23.0285   XXXZ      -0.0331
      XXYZ      -0.2346   XYYZ      -0.0048   YYYZ      -0.0301
      XXZZ     -65.2384   XYZZ      -0.0093   YYZZ      -5.9016
      XZZZ      -0.0091   YZZZ       0.0036   ZZZZ     -12.3117
 -----------------------------------------------------------------
 Calculating analytic gradient of the SCF energy
 Gradient of SCF Energy
            1           2           3           4           5
    1   0.0008767  -0.0171843   0.0167145   0.0314345  -0.0318414
    2  -0.0824460   0.0605694   0.0607282  -0.0193221  -0.0195295
    3   0.0181026  -0.0114519  -0.0121193   0.0026442   0.0028244
 Max gradient component =       8.245E-02
 RMS gradient           =       3.474E-02
 Gradient time:  CPU 0.44 s  wall 0.21 s

     Step 8	:
        Energy is -274.6170004889
                            Maximum         Tolerance       Converged?
         Gradient           3.51878327e-02	3.00000000e-04	false
         Displacement       4.68951584e-01	1.20000000e-03	false
         Energy change      2.62964291e-02	1.00000000e-06	false


	OPTIMIZATION CYCLE:	9

 Scaling Magnitude of Eigenvalues
 	Minimum: -25.00000000	 Maximum: 25.00000000
 9 Hessian Eigenvalues to form next step
   0.05549634   0.10910661   0.11002534   0.13981211   0.14431016
   0.50600000   0.59646564   0.61689892   1.03793005

 Minimum Search taking a RFO step
 Searching for Lambda that minimizes along all modes
	Value of Lambda   -0.02102338
	Norm  of Stepsize  0.50770725
	RMS   of Stepsize  0.16923575

	Performing Iterative Coordinate Back-Transformation

	  Starting from Previous Position

	  iter:	0	rms: 9.8450818967e-02	maxdev: 2.6200361550e-01
	  iter:	1	rms: 7.4606189217e-04	maxdev: 1.8787639573e-03
	  iter:	2	rms: 6.5538742512e-07	maxdev: 1.2324799994e-06	 Success!

	Finished Iterative Coordinate Back-Transformation
 ----------------------------------------------------------------
             Standard Nuclear Orientation (Bohr)
    I     Atom           X                Y                Z
 ----------------------------------------------------------------
    1      O       0.0032051843    -0.8261940241     0.0184500922
    2      H      -1.6119625036     0.2806683429    -0.1307442503
    3      H       1.6105711907     0.2865659873    -0.1433286679
    4      F      -4.6316705712     0.2788309210     0.0427111973
    5      F       4.6293148457     0.2812201690     0.0432948803
 ----------------------------------------------------------------
 Molecular Point Group                 C1    NOp =  1
 Largest Abelian Subgroup              C1    NOp =  1
 Nuclear Repulsion Energy =          56.28927287 hartrees
 There are       15 alpha and       15 beta electrons

                       Distance Matrix (Bohrs)
             O (  1)   H (  2)   H (  3)   F (  4)
   H (  2)  1.963713
   H (  3)  1.961640  3.222564
   F (  4)  4.764844  3.024686  6.245018
   F (  5)  4.756877  6.243703  3.024512  9.260986
 
 Applying Cartesian multipole field
    Component          Value
    ---------          -----
     (2,0,0)        1.00000E-10
     (0,2,0)        2.00000E-10
     (0,0,2)       -3.00000E-10
 Nucleus-field energy     = 4.0498415390e-08 hartrees
 Requested basis set is 6-31G
 There are 13 shells and 31 basis functions
 A cutoff of  1.0D-12 yielded     83 shell pairs
 There are       497 function pairs
 Smallest overlap matrix eigenvalue = 5.18E-02
 Guess MOs from SCF MO coefficient file

 -----------------------------------------------------------------------
  General SCF calculation program by
  Eric Jon Sundstrom, Paul Horn, Yuezhi Mao, Dmitri Zuev, Alec White,
  David Stuck, Shaama M.S., Shane Yost, Joonho Lee, David Small,
  Daniel Levine, Susi Lehtola, Hugh Burton, Evgeny Epifanovsky,
  Bang C. Huynh
 -----------------------------------------------------------------------
 Hartree-Fock
 A restricted SCF calculation will be
 performed using DIIS
 SCF converges when DIIS error is below 1.0e-08
 ---------------------------------------
  Cycle       Energy         DIIS error
 ---------------------------------------
    1    -274.6318820109      3.00e-03  
    2    -274.6330976946      7.80e-04  
    3    -274.6331774347      4.05e-04  
    4    -274.6331957492      7.06e-05  
    5    -274.6331972948      1.50e-05  
    6    -274.6331973442      5.78e-06  
    7    -274.6331973490      7.31e-07  
    8    -274.6331973491      1.73e-07  
    9    -274.6331973491      2.62e-08  
   10    -274.6331973491      2.83e-09  Convergence criterion met
 ---------------------------------------
 SCF time:   CPU 1.01s  wall 1.00s 
 SCF   energy in the final basis set =     -274.6331973491
 Total energy in the final basis set =     -274.6331973491
 
 --------------------------------------------------------------
 
                    Orbital Energies (a.u.)
 --------------------------------------------------------------
 
 Alpha MOs
 -- Occupied --
-25.6479 -25.6474 -20.0681  -0.9228  -0.9199  -0.8283  -0.2189  -0.0914
 -0.0343  -0.0271  -0.0269  -0.0268  -0.0121  -0.0107   0.0087
 -- Virtual --
  0.7326   0.8577   1.4998   1.5639   1.6215   1.6610   1.7918   2.0340
  2.0489   2.0612   2.1053   2.1288   2.1601   2.1719   2.5380   2.6517
 --------------------------------------------------------------
 
          Ground-State Mulliken Net Atomic Charges

     Atom                 Charge (a.u.)
  ----------------------------------------
      1 O                    -1.055371
      2 H                     0.422752
      3 H                     0.422533
      4 F                    -0.894858
      5 F                    -0.895056
  ----------------------------------------
  Sum of atomic charges =    -2.000000

 -----------------------------------------------------------------
                    Cartesian Multipole Moments
 -----------------------------------------------------------------
    Charge (ESU x 10^10)
                -9.6064
    Dipole Moment (Debye)
         X      -0.0063      Y       1.6612      Z      -0.5541
       Tot       1.7512
    Quadrupole Moments (Debye-Ang)
        XX     -68.4816     XY      -0.0043     YY     -20.2129
        XZ      -0.0153     YZ      -0.0675     ZZ     -19.1047
    Octopole Moments (Debye-Ang^2)
       XXX       0.0659    XXY      -7.0304    XYY      -0.0099
       YYY       3.7334    XXZ      -1.5350    XYZ      -0.0010
       YYZ      -0.2413    XZZ      -0.0027    YZZ       1.1718
       ZZZ      -0.7459
    Hexadecapole Moments (Debye-Ang^3)
      XXXX    -738.4664   XXXY      -0.1135   XXYY     -75.3615
      XYYY      -0.0381   YYYY     -21.7128   XXXZ      -0.0201
      XXYZ      -0.2175   XYYZ      -0.0027   YYYZ      -0.0291
      XXZZ     -72.8587   XYZZ      -0.0127   YYZZ      -5.6752
      XZZZ      -0.0035   YZZZ      -0.0025   ZZZZ     -12.2725
 -----------------------------------------------------------------
 Calculating analytic gradient of the SCF energy
 Gradient of SCF Energy
            1           2           3           4           5
    1   0.0009955  -0.0237801   0.0231030   0.0156293  -0.0159478
    2  -0.0754963   0.0519309   0.0519215  -0.0141017  -0.0142544
    3   0.0151587  -0.0098535  -0.0105281   0.0025225   0.0027004
 Max gradient component =       7.550E-02
 RMS gradient           =       3.005E-02
 Gradient time:  CPU 0.45 s  wall 0.22 s

     Step 9	:
        Energy is -274.6331973491
                            Maximum         Tolerance       Converged?
         Gradient           3.30430015e-02	3.00000000e-04	false
         Displacement       4.42592317e-01	1.20000000e-03	false
         Energy change      1.61968602e-02	1.00000000e-06	false


	OPTIMIZATION CYCLE:	10

 Scaling Magnitude of Eigenvalues
 	Minimum: -25.00000000	 Maximum: 25.00000000
 9 Hessian Eigenvalues to form next step
   0.03514502   0.10911565   0.11003775   0.13980112   0.14429825
   0.50598740   0.59640509   0.61210163   0.96123432

 Minimum Search taking a RFO step
 Searching for Lambda that minimizes along all modes
	Value of Lambda   -0.01328976
	Norm  of Stepsize  0.49369390
	RMS   of Stepsize  0.16456463

	Performing Iterative Coordinate Back-Transformation

	  Starting from Previous Position

	  iter:	0	rms: 9.3144234727e-02	maxdev: 2.4668731634e-01
	  iter:	1	rms: 7.7292724398e-04	maxdev: 1.6277206566e-03
	  iter:	2	rms: 4.0154428650e-07	maxdev: 7.8904842011e-07	 Success!

	Finished Iterative Coordinate Back-Transformation
 ----------------------------------------------------------------
             Standard Nuclear Orientation (Bohr)
    I     Atom           X                Y                Z
 ----------------------------------------------------------------
    1      O       0.0032081871    -0.7553780605     0.0137727475
    2      H      -1.6443173115     0.2615763086    -0.1212999925
    3      H       1.6435020716     0.2668781737    -0.1330540069
    4      F      -4.8775341894     0.2626566951     0.0353737873
    5      F       4.8745993880     0.2653582793     0.0355907162
 ----------------------------------------------------------------
 Molecular Point Group                 C1    NOp =  1
 Largest Abelian Subgroup              C1    NOp =  1
 Nuclear Repulsion Energy =          54.08792638 hartrees
 There are       15 alpha and       15 beta electrons

                       Distance Matrix (Bohrs)
             O (  1)   H (  2)   H (  3)   F (  4)
   H (  2)  1.940820
   H (  3)  1.938332  3.287845
   F (  4)  4.985831  3.237011  6.523212
   F (  5)  4.977231  6.520805  3.235496  9.752134
 
 Applying Cartesian multipole field
    Component          Value
    ---------          -----
     (2,0,0)        1.00000E-10
     (0,2,0)        2.00000E-10
     (0,0,2)       -3.00000E-10
 Nucleus-field energy     = 4.4512179417e-08 hartrees
 Requested basis set is 6-31G
 There are 13 shells and 31 basis functions
 A cutoff of  1.0D-12 yielded     83 shell pairs
 There are       497 function pairs
 Smallest overlap matrix eigenvalue = 5.40E-02
 Guess MOs from SCF MO coefficient file

 -----------------------------------------------------------------------
  General SCF calculation program by
  Eric Jon Sundstrom, Paul Horn, Yuezhi Mao, Dmitri Zuev, Alec White,
  David Stuck, Shaama M.S., Shane Yost, Joonho Lee, David Small,
  Daniel Levine, Susi Lehtola, Hugh Burton, Evgeny Epifanovsky,
  Bang C. Huynh
 -----------------------------------------------------------------------
 Hartree-Fock
 A restricted SCF calculation will be
 performed using DIIS
 SCF converges when DIIS error is below 1.0e-08
 ---------------------------------------
  Cycle       Energy         DIIS error
 ---------------------------------------
    1    -274.6422114824      2.70e-03  
    2    -274.6432080663      8.05e-04  
    3    -274.6432818668      3.86e-04  
    4    -274.6432996679      6.50e-05  
    5    -274.6433010430      1.30e-05  
    6    -274.6433010898      4.92e-06  
    7    -274.6433010925      6.59e-07  
    8    -274.6433010927      1.36e-07  
    9    -274.6433010927      2.43e-08  
   10    -274.6433010927      2.18e-09  Convergence criterion met
 ---------------------------------------
 SCF time:   CPU 0.93s  wall 1.00s 
 SCF   energy in the final basis set =     -274.6433010927
 Total energy in the final basis set =     -274.6433010927
 
 --------------------------------------------------------------
 
                    Orbital Energies (a.u.)
 --------------------------------------------------------------
 
 Alpha MOs
 -- Occupied --
-25.6498 -25.6495 -20.0928  -0.9215  -0.9191  -0.8545  -0.2448  -0.0978
 -0.0459  -0.0280  -0.0279  -0.0278  -0.0244  -0.0197  -0.0044
 -- Virtual --
  0.7139   0.8382   1.4826   1.5794   1.6021   1.6370   1.8086   2.0271
  2.0475   2.0549   2.0940   2.1047   2.1232   2.1407   2.4953   2.6183
 --------------------------------------------------------------
 
          Ground-State Mulliken Net Atomic Charges

     Atom                 Charge (a.u.)
  ----------------------------------------
      1 O                    -1.046170
      2 H                     0.424098
      3 H                     0.424052
      4 F                    -0.900910
      5 F                    -0.901070
  ----------------------------------------
  Sum of atomic charges =    -2.000000

 -----------------------------------------------------------------
                    Cartesian Multipole Moments
[...]
    4      F      -4.7398218220     1.1474676962     0.1222195291
    5      F       4.7428957346     1.1535375731     0.1155342424
 ----------------------------------------------------------------
 Molecular Point Group                 C1    NOp =  1
 Largest Abelian Subgroup              C1    NOp =  1
 Nuclear Repulsion Energy =          52.32866751 hartrees
 There are       15 alpha and       15 beta electrons

                       Distance Matrix (Bohrs)
             O (  1)   H (  2)   H (  3)   F (  4)
   H (  2)  1.840747
   H (  3)  1.841120  3.111659
   F (  4)  5.352639  3.520796  6.471181
   F (  5)  5.359106  6.478745  3.527147  9.482722
 
 Applying Cartesian multipole field
    Component          Value
    ---------          -----
     (2,0,0)        1.00000E-10
     (0,2,0)        2.00000E-10
     (0,0,2)       -3.00000E-10
 Nucleus-field energy     =     0.0000000483 hartrees
 Requested basis set is 6-31G
 There are 13 shells and 31 basis functions
 A cutoff of  1.0D-12 yielded     81 shell pairs
 There are       489 function pairs
 Smallest overlap matrix eigenvalue = 5.16E-02
 Guess MOs from SCF MO coefficient file

 -----------------------------------------------------------------------
  General SCF calculation program by
  Eric Jon Sundstrom, Paul Horn, Yuezhi Mao, Dmitri Zuev, Alec White,
  David Stuck, Shaama M.S., Shane Yost, Joonho Lee, David Small,
  Daniel Levine, Susi Lehtola, Hugh Burton, Evgeny Epifanovsky,
  Bang C. Huynh
 -----------------------------------------------------------------------
 Hartree-Fock
 A restricted SCF calculation will be
 performed using DIIS
 SCF converges when DIIS error is below 1.0e-08
 ---------------------------------------
  Cycle       Energy         DIIS error
 ---------------------------------------
    1    -274.6638780706      5.52e-05  
    2    -274.6638786669      1.56e-05  
    3    -274.6638787306      3.34e-06  
    4    -274.6638787328      1.47e-06  
    5    -274.6638787332      2.49e-07  
    6    -274.6638787332      4.51e-08  
    7    -274.6638787332      1.91e-08  
    8    -274.6638787332      2.97e-09  Convergence criterion met
 ---------------------------------------
 SCF time:   CPU 0.72s  wall 1.00s 
 SCF   energy in the final basis set =     -274.6638787332
 Total energy in the final basis set =     -274.6638787332
 
 --------------------------------------------------------------
 
                    Orbital Energies (a.u.)
 --------------------------------------------------------------
 
 Alpha MOs
 -- Occupied --
-25.6513 -25.6511 -20.1194  -0.9236  -0.9182  -0.9039  -0.2945  -0.1337
 -0.0779  -0.0286  -0.0286  -0.0284  -0.0281  -0.0221  -0.0168
 -- Virtual --
  0.7112   0.8566   1.5458   1.5525   1.5738   1.5983   1.8546   2.0266
  2.0465   2.0490   2.0494   2.0514   2.1097   2.1210   2.6017   2.6307
 --------------------------------------------------------------
 
          Ground-State Mulliken Net Atomic Charges

     Atom                 Charge (a.u.)
  ----------------------------------------
      1 O                    -1.050645
      2 H                     0.431273
      3 H                     0.430993
      4 F                    -0.905676
      5 F                    -0.905945
  ----------------------------------------
  Sum of atomic charges =    -2.000000

 -----------------------------------------------------------------
                    Cartesian Multipole Moments
 -----------------------------------------------------------------
    Charge (ESU x 10^10)
                -9.6064
    Dipole Moment (Debye)
         X      -0.0126      Y      -2.4034      Z      -0.1234
       Tot       2.4066
    Quadrupole Moments (Debye-Ang)
        XX     -71.4620     XY      -0.0403     YY     -24.8285
        XZ       0.0482     YZ      -0.7638     ZZ     -19.0897
    Octopole Moments (Debye-Ang^2)
       XXX      -0.1767    XXY     -36.7269    XYY      -0.0535
       YYY      -6.2505    XXZ      -3.5465    XYZ       0.0168
       YYZ       0.2431    XZZ      -0.0038    YZZ      -1.9833
       ZZZ       0.4317
    Hexadecapole Moments (Debye-Ang^3)
      XXXX    -789.9422   XXXY      -0.4707   XXYY    -103.2666
      XYYY      -0.2028   YYYY     -59.7443   XXXZ       0.3749
      XXYZ      -2.9675   XYYZ       0.0601   YYYZ      -3.3463
      XXZZ     -76.5439   XYZZ      -0.0507   YYZZ     -11.8016
      XZZZ       0.1431   YZZZ      -3.0628   ZZZZ     -12.9146
 -----------------------------------------------------------------
 Calculating analytic gradient of the SCF energy
 Gradient of SCF Energy
            1           2           3           4           5
    1  -0.0002809   0.0002478  -0.0000040  -0.0000374   0.0000744
    2   0.0000054  -0.0001309   0.0000292   0.0000397   0.0000566
    3   0.0000244  -0.0002565   0.0002025   0.0000854  -0.0000559
 Max gradient component =       2.809E-04
 RMS gradient           =       1.385E-04
 Gradient time:  CPU 0.38 s  wall 0.20 s

     Step 21	:
        Energy is -274.6638787332
                            Maximum         Tolerance       Converged?
         Gradient           2.80905655e-04	3.00000000e-04	true
         Displacement       2.23177536e-03	1.20000000e-03	false
         Energy change      1.16064308e-06	1.00000000e-06	false


	OPTIMIZATION CYCLE:	22

 Scaling Magnitude of Eigenvalues
 	Minimum: -25.00000000	 Maximum: 25.00000000
 9 Hessian Eigenvalues to form next step
   0.00746143   0.02359511   0.04129338   0.07054389   0.07539610
   0.22656619   0.92418722   1.13637593   1.79092117

 Minimum Search taking a RFO step
 Searching for Lambda that minimizes along all modes
	Value of Lambda   -0.00000177
	Norm  of Stepsize  0.00551719
	RMS   of Stepsize  0.00142453
 ----------------------------------------------------------------
             Standard Nuclear Orientation (Bohr)
    I     Atom           X                Y                Z
 ----------------------------------------------------------------
    1      O      -0.0016409326    -1.3156529121    -0.2265269647
    2      H      -1.5574406017    -0.3406917041    -0.0918967196
    3      H       1.5545048155    -0.3415923530    -0.0884906345
    4      F      -4.7390457978     1.1458636390     0.1209254436
    5      F       4.7430806624     1.1531647263     0.1163721269
 ----------------------------------------------------------------
 Molecular Point Group                 C1    NOp =  1
 Largest Abelian Subgroup              C1    NOp =  1
 Nuclear Repulsion Energy =          52.33606501 hartrees
 There are       15 alpha and       15 beta electrons

                       Distance Matrix (Bohrs)
             O (  1)   H (  2)   H (  3)   F (  4)
   H (  2)  1.840975
   H (  3)  1.841043  3.111947
   F (  4)  5.350027  3.518203  6.470329
   F (  5)  5.359573  6.478545  3.527504  9.482130
 
 Applying Cartesian multipole field
    Component          Value
    ---------          -----
     (2,0,0)        1.00000E-10
     (0,2,0)        2.00000E-10
     (0,0,2)       -3.00000E-10
 Nucleus-field energy     =     0.0000000483 hartrees
 Requested basis set is 6-31G
 There are 13 shells and 31 basis functions
 A cutoff of  1.0D-12 yielded     81 shell pairs
 There are       489 function pairs
 Smallest overlap matrix eigenvalue = 5.16E-02
 Guess MOs from SCF MO coefficient file

 -----------------------------------------------------------------------
  General SCF calculation program by
  Eric Jon Sundstrom, Paul Horn, Yuezhi Mao, Dmitri Zuev, Alec White,
  David Stuck, Shaama M.S., Shane Yost, Joonho Lee, David Small,
  Daniel Levine, Susi Lehtola, Hugh Burton, Evgeny Epifanovsky,
  Bang C. Huynh
 -----------------------------------------------------------------------
 Hartree-Fock
 A restricted SCF calculation will be
 performed using DIIS
 SCF converges when DIIS error is below 1.0e-08
 ---------------------------------------
  Cycle       Energy         DIIS error
 ---------------------------------------
    1    -274.6638790317      6.39e-05  
    2    -274.6638798534      1.86e-05  
    3    -274.6638799485      4.29e-06  
    4    -274.6638799526      1.95e-06  
    5    -274.6638799534      2.93e-07  
    6    -274.6638799534      4.67e-08  
    7    -274.6638799534      2.06e-08  
    8    -274.6638799534      3.50e-09  Convergence criterion met
 ---------------------------------------
 SCF time:   CPU 0.65s  wall 0.00s 
 SCF   energy in the final basis set =     -274.6638799534
 Total energy in the final basis set =     -274.6638799534
 
 --------------------------------------------------------------
 
                    Orbital Energies (a.u.)
 --------------------------------------------------------------
 
 Alpha MOs
 -- Occupied --
-25.6513 -25.6510 -20.1193  -0.9236  -0.9182  -0.9038  -0.2944  -0.1336
 -0.0778  -0.0287  -0.0286  -0.0284  -0.0281  -0.0221  -0.0168
 -- Virtual --
  0.7113   0.8568   1.5457   1.5527   1.5739   1.5984   1.8548   2.0268
  2.0465   2.0490   2.0494   2.0515   2.1097   2.1210   2.6019   2.6310
 --------------------------------------------------------------
 
          Ground-State Mulliken Net Atomic Charges

     Atom                 Charge (a.u.)
  ----------------------------------------
      1 O                    -1.050783
      2 H                     0.431429
      3 H                     0.430908
      4 F                    -0.905586
      5 F                    -0.905968
  ----------------------------------------
  Sum of atomic charges =    -2.000000

 -----------------------------------------------------------------
                    Cartesian Multipole Moments
 -----------------------------------------------------------------
    Charge (ESU x 10^10)
                -9.6064
    Dipole Moment (Debye)
         X      -0.0143      Y      -2.3989      Z      -0.1211
       Tot       2.4020
    Quadrupole Moments (Debye-Ang)
        XX     -71.4531     XY      -0.0533     YY     -24.8208
        XZ       0.0290     YZ      -0.7632     ZZ     -19.0899
    Octopole Moments (Debye-Ang^2)
       XXX      -0.2286    XXY     -36.6893    XYY      -0.0607
       YYY      -6.2389    XXZ      -3.5375    XYZ       0.0118
       YYZ       0.2455    XZZ      -0.0045    YZZ      -1.9800
       ZZZ       0.4372
    Hexadecapole Moments (Debye-Ang^3)
      XXXX    -789.7919   XXXY      -0.5821   XXYY    -103.2100
      XYYY      -0.2514   YYYY     -59.6717   XXXZ       0.2495
      XXYZ      -2.9605   XYYZ       0.0385   YYYZ      -3.3420
      XXZZ     -76.5337   XYZZ      -0.0651   YYZZ     -11.7904
      XZZZ       0.0967   YZZZ      -3.0593   ZZZZ     -12.9143
 -----------------------------------------------------------------
 Calculating analytic gradient of the SCF energy
 Gradient of SCF Energy
            1           2           3           4           5
    1  -0.0002607   0.0002208   0.0000096  -0.0000312   0.0000616
    2  -0.0000076  -0.0000531  -0.0000112   0.0000112   0.0000607
    3   0.0000044  -0.0001099   0.0000917   0.0000356  -0.0000218
 Max gradient component =       2.607E-04
 RMS gradient           =       1.002E-04
 Gradient time:  CPU 0.48 s  wall 0.20 s

     Step 22	:
        Energy is -274.6638799534
                            Maximum         Tolerance       Converged?
         Gradient           2.60748151e-04	3.00000000e-04	true
         Displacement       3.44787506e-03	1.20000000e-03	false
         Energy change      1.22017531e-06	1.00000000e-06	false


	OPTIMIZATION CYCLE:	23

 Scaling Magnitude of Eigenvalues
 	Minimum: -25.00000000	 Maximum: 25.00000000
 9 Hessian Eigenvalues to form next step
   0.00745425   0.02196258   0.03902031   0.05651812   0.07494018
   0.21675465   0.90185357   1.10307124   1.75579790

 Minimum Search taking a RFO step
 Searching for Lambda that minimizes along all modes
	Value of Lambda   -0.00000090
	Norm  of Stepsize  0.00495144
	RMS   of Stepsize  0.00127846
 ----------------------------------------------------------------
             Standard Nuclear Orientation (Bohr)
    I     Atom           X                Y                Z
 ----------------------------------------------------------------
    1      O      -0.0017433864    -1.3143161997    -0.2264510952
    2      H      -1.5581734733    -0.3399657677    -0.0896078217
    3      H       1.5545650969    -0.3402807725    -0.0903059380
    4      F      -4.7371947101     1.1441401539     0.1199576394
    5      F       4.7420046188     1.1515139821     0.1167904672
 ----------------------------------------------------------------
 Molecular Point Group                 C1    NOp =  1
 Largest Abelian Subgroup              C1    NOp =  1
 Nuclear Repulsion Energy =          52.35627845 hartrees
 There are       15 alpha and       15 beta electrons

                       Distance Matrix (Bohrs)
             O (  1)   H (  2)   H (  3)   F (  4)
   H (  2)  1.841347
   H (  3)  1.841026  3.112739
   F (  4)  5.346822  3.514636  6.467918
   F (  5)  5.357357  6.477604  3.525353  9.479203
 
 Applying Cartesian multipole field
    Component          Value
    ---------          -----
     (2,0,0)        1.00000E-10
     (0,2,0)        2.00000E-10
     (0,0,2)       -3.00000E-10
 Nucleus-field energy     =     0.0000000483 hartrees
 Requested basis set is 6-31G
 There are 13 shells and 31 basis functions
 A cutoff of  1.0D-12 yielded     81 shell pairs
 There are       489 function pairs
 Smallest overlap matrix eigenvalue = 5.16E-02
 Guess MOs from SCF MO coefficient file

 -----------------------------------------------------------------------
  General SCF calculation program by
  Eric Jon Sundstrom, Paul Horn, Yuezhi Mao, Dmitri Zuev, Alec White,
  David Stuck, Shaama M.S., Shane Yost, Joonho Lee, David Small,
  Daniel Levine, Susi Lehtola, Hugh Burton, Evgeny Epifanovsky,
  Bang C. Huynh
 -----------------------------------------------------------------------
 Hartree-Fock
 A restricted SCF calculation will be
 performed using DIIS
 SCF converges when DIIS error is below 1.0e-08
 ---------------------------------------
  Cycle       Energy         DIIS error
 ---------------------------------------
    1    -274.6638800879      4.54e-05  
    2    -274.6638804736      1.28e-05  
    3    -274.6638805139      4.88e-06  
    4    -274.6638805173      1.52e-06  
    5    -274.6638805180      2.30e-07  
    6    -274.6638805180      5.45e-08  
    7    -274.6638805180      1.35e-08  
    8    -274.6638805180      2.52e-09  Convergence criterion met
 ---------------------------------------
 SCF time:   CPU 0.73s  wall 1.00s 
 SCF   energy in the final basis set =     -274.6638805180
 Total energy in the final basis set =     -274.6638805180
 
 --------------------------------------------------------------
 
                    Orbital Energies (a.u.)
 --------------------------------------------------------------
 
 Alpha MOs
 -- Occupied --
-25.6514 -25.6510 -20.1190  -0.9236  -0.9182  -0.9036  -0.2942  -0.1333
 -0.0775  -0.0287  -0.0287  -0.0284  -0.0281  -0.0221  -0.0168
 -- Virtual --
  0.7116   0.8572   1.5455   1.5530   1.5742   1.5986   1.8551   2.0272
  2.0465   2.0490   2.0494   2.0515   2.1098   2.1209   2.6024   2.6317
 --------------------------------------------------------------
 
          Ground-State Mulliken Net Atomic Charges

     Atom                 Charge (a.u.)
  ----------------------------------------
      1 O                    -1.051170
      2 H                     0.431587
      3 H                     0.430962
      4 F                    -0.905461
      5 F                    -0.905917
  ----------------------------------------
  Sum of atomic charges =    -2.000000

 -----------------------------------------------------------------
                    Cartesian Multipole Moments
 -----------------------------------------------------------------
    Charge (ESU x 10^10)
                -9.6064
    Dipole Moment (Debye)
         X      -0.0176      Y      -2.3909      Z      -0.1193
       Tot       2.3939
    Quadrupole Moments (Debye-Ang)
        XX     -71.4132     XY      -0.0547     YY     -24.8079
        XZ       0.0167     YZ      -0.7617     ZZ     -19.0901
    Octopole Moments (Debye-Ang^2)
       XXX      -0.2746    XXY     -36.6109    XYY      -0.0645
       YYY      -6.2185    XXZ      -3.5257    XYZ       0.0085
       YYZ       0.2473    XZZ      -0.0068    YZZ      -1.9744
       ZZZ       0.4413
    Hexadecapole Moments (Debye-Ang^3)
      XXXX    -789.0722   XXXY      -0.6147   XXYY    -103.0755
      XYYY      -0.2594   YYYY     -59.5478   XXXZ       0.1679
      XXYZ      -2.9493   XYYZ       0.0251   YYYZ      -3.3335
      XXZZ     -76.4872   XYZZ      -0.0684   YYZZ     -11.7711
      XZZZ       0.0670   YZZZ      -3.0522   ZZZZ     -12.9130
 -----------------------------------------------------------------
 Calculating analytic gradient of the SCF energy
 Gradient of SCF Energy
            1           2           3           4           5
    1  -0.0001221   0.0000909   0.0000036  -0.0000047   0.0000324
    2  -0.0000055  -0.0000041  -0.0000166  -0.0000059   0.0000320
    3  -0.0000033  -0.0000117   0.0000131   0.0000027  -0.0000007
 Max gradient component =       1.221E-04
 RMS gradient           =       4.161E-05
 Gradient time:  CPU 0.41 s  wall 0.19 s

     Step 23	:
        Energy is -274.6638805180
                            Maximum         Tolerance       Converged?
         Gradient           1.22146105e-04	3.00000000e-04	true
         Displacement       2.28889790e-03	1.20000000e-03	false
         Energy change      5.64613742e-07	1.00000000e-06	true

	 Optimization Converged in 23 cycles

 *****************************************************
             End of BFGS Algorithm
 *****************************************************
		----------------------------------
		   Verification of Optimization
		----------------------------------

 Eigenvalues of Hessian in Optimization Verification
   0.00745850   0.01822989   0.04149422   0.05286525   0.07514192
   0.20791521   0.88199535   1.07755044   1.73450697

 Found a minimum
		---------------------------------
		       End of Verification
		---------------------------------

 Final energy is -274.663880518023

	******************************
	**  OPTIMIZATION CONVERGED  **
	******************************
 ----------------------------------------------------------------
             Standard Nuclear Orientation (Bohr)
    I     Atom           X                Y                Z
 ----------------------------------------------------------------
    1      O      -0.0017433864    -1.3143161997    -0.2264510952
    2      H      -1.5581734733    -0.3399657677    -0.0896078217
    3      H       1.5545650969    -0.3402807725    -0.0903059380
    4      F      -4.7371947101     1.1441401539     0.1199576394
    5      F       4.7420046188     1.1515139821     0.1167904672
 ----------------------------------------------------------------
 Molecular Point Group                 C1    NOp =  1
 Largest Abelian Subgroup              C1    NOp =  1
 Nuclear Repulsion Energy =          52.35627845 hartrees
 There are       15 alpha and       15 beta electrons

Z-matrix Print:
$molecule
-2 1
O 
H  1 1.841026
H  1 1.841347 2 115.409853
F  3 3.514636 1 172.943232 2 -179.873919 0
F  2 3.525353 1 173.000506 3 -179.834989 0
$end

 -----------------------------------------------------------------------
                  END OF GEOMETRY OPTIMIZER USING LIBOPT3               
 -----------------------------------------------------------------------
 Total job time:  44.22s(wall), 94.27s(cpu) 
 Wed Jul  5 10:11:19 2023

        *************************************************************
        *                                                           *
        *  Thank you very much for using Q-Chem.  Have a nice day.  *
        *                                                           *
        *************************************************************


