                  Welcome to Q-Chem
     A Quantum Leap Into The Future Of Chemistry


 Q-Chem 6.0 (devel), Q-Chem, Inc., Pleasanton, CA (2022)

 E. Epifanovsky,  A. T. B. Gilbert,  Xintian Feng,  Joonho Lee,  Yuezhi Mao,  
 N. Mardirossian,  P. Pokhilko,  A. White,  M. Wormit,  M. P. Coons,  
 A. L. Dempwolff,  Zhengting Gan,  D. Hait,  P. R. Horn,  L. D. Jacobson,  
 I. Kaliman,  J. Kussmann,  A. W. Lange,  Ka Un Lao,  D. S. Levine,  Jie Liu,  
 S. C. McKenzie,  A. F. Morrison,  K. Nanda,  F. Plasser,  D. R. Rehn,  
 M. L. Vidal,  Zhi-Qiang You,  Ying Zhu,  B. Alam,  B. Albrecht,  
 A. Aldossary,  E. Alguire,  J. H. Andersen,  V. Athavale,  D. Barton,  
 K. Begam,  A. Behn,  N. Bellonzi,  Y. A. Bernard,  E. J. Berquist,  
 H. Burton,  A. Carreras,  K. Carter-Fenk,  Romit Chakraborty,  
 Chandrima Chakravarty,  Junhan Chen,  A. D. Chien,  K. D. Closser,  
 V. Cofer-Shabica,  L. Cunha,  S. Dasgupta,  Jia Deng,  M. de Wergifosse,  
 M. Diedenhofen,  Hainam Do,  S. Ehlert,  Po-Tung Fang,  S. Fatehi,  
 Qingguo Feng,  T. Friedhoff,  B. Ganoe,  J. Gayvert,  Qinghui Ge,  
 G. Gidofalvi,  M. Goldey,  J. Gomes,  C. Gonzalez-Espinoza,  S. Gulania,  
 A. Gunina,  J. A. Gyamfi,  M. W. D. Hanson-Heine,  P. H. P. Harbach,  
 A. W. Hauser,  M. F. Herbst,  M. Hernandez Vera,  M. Hodecker,  
 Z. C. Holden,  S. Houck,  Xunkun Huang,  Kerwin Hui,  B. C. Huynh,  
 K. Ikeda,  M. Ivanov,  Hyunjun Ji,  Zuxin Jin,  Hanjie Jiang,  B. Kaduk,  
 S. Kaehler,  R. Kang,  K. Khistyaev,  Jaehoon Kim,  Yongbin Kim,  
 P. Klunzinger,  Z. Koczor-Benda,  Joong Hoon Koh,  D. Kosenkov,  
 Saikiran Kotaru,  L. Koulias,  T. Kowalczyk,  C. M. Krauter,  K. Kue,  
 A. Kunitsa,  T. Kus,  A. Landau,  K. V. Lawler,  D. Lefrancois,  S. Lehtola,  
 Rain Li,  Shaozhi Li,  Yi-Pei Li,  Jiashu Liang,  M. Liebenthal,  
 Hung-Hsuan Lin,  You-Sheng Lin,  Fenglai Liu,  Kuan-Yu Liu,  
 M. Loipersberger,  A. Luenser,  C. Malbon,  A. Manjanath,  P. Manohar,  
 E. Mansoor,  S. F. Manzer,  Shan-Ping Mao,  A. V. Marenich,  T. Markovich,  
 S. Mason,  F. Matz,  S. A. Maurer,  P. F. McLaughlin,  M. F. S. J. Menger,  
 J.-M. Mewes,  S. A. Mewes,  P. Morgante,  Mohammad Mostafanejad,  
 J. W. Mullinax,  K. J. Oosterbaan,  G. Paran,  V. Parravicini,  
 Alexander C. Paul,  Suranjan K. Paul,  F. Pavosevic,  Zheng Pei,  S. Prager,  
 E. I. Proynov,  E. Ramos,  B. Rana,  A. E. Rask,  A. Rettig,  R. M. Richard,  
 F. Rob,  E. Rossomme,  T. Scheele,  M. Scheurer,  M. Schneider,  
 P. E. Schneider,  N. Sergueev,  S. M. Sharada,  Hengyuan Shen,  
 W. Skomorowski,  D. W. Small,  C. J. Stein,  Yingli Su,  Yu-Chuan Su,  
 E. J. Sundstrom,  Zhen Tao,  J. Thirman,  Hung-Yi Tsai,  T. Tsuchimochi,  
 N. M. Tubman,  C. Utku,  S. P. Veccham,  O. Vydrov,  J. Wenzel,  
 Jonathan Wong,  J. Witte,  A. Yamada,  Chou-Hsun Yang,  Kun Yao,  
 S. Yeganeh,  S. R. Yost,  A. Zech,  F. Zeller,  Igor Ying Zhang,  
 Xing Zhang,  Yu Zhang,  D. Zuev,  A. Aspuru-Guzik,  A. T. Bell,  
 N. A. Besley,  K. B. Bravaya,  B. R. Brooks,  D. Casanova,  Jeng-Da Chai,  
 Hsing-Ta Chen,  S. Coriani,  C. J. Cramer,  A. E. DePrince, III,  
 R. A. DiStasio Jr.,  A. Dreuw,  B. D. Dunietz,  T. R. Furlani,  
 W. A. Goddard III,  S. Grimme,  S. Hammes-Schiffer,  T. Head-Gordon,  
 W. J. Hehre,  Chao-Ping Hsu,  T.-C. Jagau,  Yousung Jung,  A. Klamt,  
 Jing Kong,  D. S. Lambrecht,  Xiangyuan Li,  WanZhen Liang,  N. J. Mayhall,  
 C. W. McCurdy,  J. B. Neaton,  T. Neudecker,  C. Ochsenfeld,  
 J. A. Parkhill,  R. Peverati,  V. A. Rassolov,  Haisheng Ren,  Yihan Shao,  
 L. V. Slipchenko,  R. P. Steele,  J. E. Subotnik,  A. J. W. Thom,  
 A. Tkatchenko,  D. G. Truhlar,  T. Van Voorhis,  Fan Wang,  
 T. A. Wesolowski,  K. B. Whaley,  H. L. Woodcock III,  P. M. Zimmerman,  
 S. Faraji,  P. M. W. Gill,  M. Head-Gordon,  J. M. Herbert,  A. I. Krylov

 Contributors to earlier versions of Q-Chem not listed above: 
 R. D. Adamson,  B. Austin,  R. Baer,  J. Baker,  G. J. O. Beran,  
 K. Brandhorst,  S. T. Brown,  E. F. C. Byrd,  Arup K. Chakraborty,  
 G. K. L. Chan,  Chun-Min Chang,  Yunqing Chen,  C.-L. Cheng,  
 Siu Hung Chien,  D. M. Chipman,  D. L. Crittenden,  H. Dachsel,  
 R. J. Doerksen,  A. D. Dutoi,  R. G. Edgar,  J. Fosso-Tande,  
 L. Fusti-Molnar,  D. Ghosh,  A. Ghysels,  A. Golubeva-Zadorozhnaya,  
 J. Gonthier,  M. S. Gordon,  S. R. Gwaltney,  G. Hawkins,  J. E. Herr,  
 A. Heyden,  S. Hirata,  E. G. Hohenstein,  G. Kedziora,  F. J. Keil,  
 C. Kelley,  Jihan Kim,  R. A. King,  R. Z. Khaliullin,  P. P. Korambath,  
 W. Kurlancheek,  A. Laurent,  A. M. Lee,  M. S. Lee,  S. V. Levchenko,  
 Ching Yeh Lin,  D. Liotard,  E. Livshits,  R. C. Lochan,  I. Lotan,  
 L. A. Martinez-Martinez,  P. E. Maslen,  N. Nair,  D. P. O'Neill,  
 D. Neuhauser,  E. Neuscamman,  C. M. Oana,  R. Olivares-Amaya,  R. Olson,  
 T. M. Perrine,  B. Peters,  P. A. Pieniazek,  A. Prociuk,  Y. M. Rhee,  
 J. Ritchie,  M. A. Rohrdanz,  E. Rosta,  N. J. Russ,  H. F. Schaefer III,  
 M. W. Schmidt,  N. E. Schultz,  S. Sharma,  N. Shenvi,  C. D. Sherrill,  
 A. C. Simmonett,  A. Sodt,  T. Stein,  D. Stuck,  K. S. Thanthiriwatte,  
 V. Vanovschi,  L. Vogt,  Tao Wang,  A. Warshel,  M. A. Watson,  
 C. F. Williams,  Q. Wu,  X. Xu,  Jun Yang,  W. Zhang,  Yan Zhao

   Please cite Q-Chem as follows:
  "Software for the frontiers of quantum chemistry:
   An overview of developments in the Q-Chem 5 package"
   J. Chem. Phys. 155, 084801 (2021)
   https://doi.org/10.1063/5.0055522 (open access)

 Q-Chem 6.0.2 for Intel X86 EM64T Linux

 Parts of Q-Chem use Armadillo 9.900.5 (Nocturnal Misbehaviour).
 http://arma.sourceforge.net/

 Q-Chem begins on Tue Jul  4 16:11:44 2023  

 Host: 
0

     Scratch files written to /lscratch/ccprak16/base_528/qchem30448//
 Processing $rem in /opt/software/Q-Chem/intel/mkl/6.0.2/generic/config/preferences:
 Processing $rem in /export/home/ccprak16/.qchemrc:

 Checking the input file for inconsistencies... 	...done.

--------------------------------------------------------------
User input:
--------------------------------------------------------------
$molecule
0 1
  F    0.1654340    0.3629310    0.0948891
  H   -0.7681508    0.3529982    0.7175341
  F   -0.8466398   -0.6421835    0.2048763
  H   -0.6033177   -1.5162606   -0.4555417
  F    0.2719916   -0.8454581   -0.6634505
  Li    0.9622579    0.0385514   -0.6256800
$end

$rem
jobtype opt
method b3lyp
basis 3-21++g
input_bohr true
threads 1
mem_total 10000
!QSYS wt=01:00:00
$end
--------------------------------------------------------------
 Atom   5: (  0.3785219286,  0.0000000000,  0.1762842858)
         ->(  0.3785229338,  0.0000000065,  0.1762818120)
 Atom   1: ( -0.3785229338, -0.0000000065,  0.1762818120)
         ->( -0.3785229338,  0.0000000000,  0.1762818120)
 Atom   4: (  0.5855380419, -0.0000000538, -0.3803155777)
         ->(  0.5855354590,  0.0000000159, -0.3803187827)
 Atom   2: ( -0.5855354590, -0.0000000159, -0.3803187827)
         ->( -0.5855354590,  0.0000000000, -0.3803187827)
 Atom   3: (  0.0000011802,  0.0000000097, -0.4793390141)
         ->(  0.0000000000,  0.0000000000, -0.4793390141)
 Atom   6: ( -0.0000013859,  0.0000000134,  0.6338635359)
         ->(  0.0000000000,  0.0000000000,  0.6338635359)
 ----------------------------------------------------------------
             Standard Nuclear Orientation (Bohr)
    I     Atom           X                Y                Z
 ----------------------------------------------------------------
    1      F      -0.7153046769     0.0000000000     0.3331243454
    2      H      -1.1065016541     0.0000000000    -0.7186983394
    3      F       0.0000000000     0.0000000000    -0.9058194577
    4      H       1.1065016541     0.0000000300    -0.7186983394
    5      F       0.7153046769     0.0000000122     0.3331243454
    6      Li      0.0000000000     0.0000000000     1.1978284835
 ----------------------------------------------------------------
 Molecular Point Group                 C2v   NOp =  4
 Largest Abelian Subgroup              C2v   NOp =  4
 Nuclear Repulsion Energy =         274.61069353 hartrees
 There are       16 alpha and       16 beta electrons
 Requested basis set is 3-21++G
 There are 22 shells and 58 basis functions

 Total QAlloc Memory Limit  10000 MB
 Mega-Array Size       188 MB
 MEM_STATIC part       192 MB

 -----------------------------------------------------------------------
                STARTING GEOMETRY OPTIMIZER USING LIBOPT3
                by Peter F. McLaughlin, Yu Zhang, Evgeny Epifanovsky
 -----------------------------------------------------------------------

              Initial Energy and Gradient Calculation
   -- Checking Topology for Ill-Behaving Coordinates --

 -------------------------------------------
   Coordinate       |  Removed | Additions 
 -------------------------------------------
	Bonds                     0          0
	Angles                    0          0
	Torsions                  0          0
	Co-Linear Type5s          0          0
	Co-Linear Type6s          0          0
 -------------------------------------------
     Done Checking Topology
 Atom   4: (  0.5855354590,  0.0000000083, -0.3803179868)
         ->(  0.5855354590, -0.0000000037, -0.3803179868)
 Atom   2: ( -0.5855354590,  0.0000000037, -0.3803179868)
         ->( -0.5855354590,  0.0000000000, -0.3803179868)
 Atom   6: ( -0.0000000000, -0.0000000030,  0.6338643318)
         ->(  0.0000000000,  0.0000000000,  0.6338643318)
 ----------------------------------------------------------------
             Standard Nuclear Orientation (Bohr)
    I     Atom           X                Y                Z
 ----------------------------------------------------------------
    1      F      -0.7153046769     0.0000000022     0.3331258495
    2      H      -1.1065016541     0.0000000000    -0.7186968354
    3      F       0.0000000000    -0.0000000035    -0.9058179537
    4      H       1.1065016541    -0.0000000070    -0.7186968354
    5      F       0.7153046769     0.0000000006     0.3331258495
    6      Li      0.0000000000     0.0000000000     1.1978299876
 ----------------------------------------------------------------
 Molecular Point Group                 C2v   NOp =  4
 Largest Abelian Subgroup              C2v   NOp =  4
 Nuclear Repulsion Energy =         274.61069018 hartrees
 There are       16 alpha and       16 beta electrons

                       Distance Matrix (Bohrs)
             F (  1)   H (  2)   F (  3)   H (  4)   F (  5)
   H (  2)  1.122215
   F (  3)  1.430609  1.122212
   H (  4)  2.103642  2.213003  1.122212
   F (  5)  1.430609  2.103642  1.430609  1.122215
   Li(  6)  1.122218  2.213012  2.103648  2.213012  1.122218
 
 Requested basis set is 3-21++G
 There are 22 shells and 58 basis functions
 A cutoff of  1.0D-12 yielded    253 shell pairs
 There are      1783 function pairs
 Smallest overlap matrix eigenvalue = 4.50E-05

 Scale SEOQF with 1.000000e-02/1.000000e-02/1.000000e-02

 Standard Electronic Orientation quadrupole field applied
 Guess from superposition of atomic densities
 Warning:  Energy on first SCF cycle will be non-variational
 SAD guess density has 32.000000 electrons

 -----------------------------------------------------------------------
  General SCF calculation program by
  Eric Jon Sundstrom, Paul Horn, Yuezhi Mao, Dmitri Zuev, Alec White,
  David Stuck, Shaama M.S., Shane Yost, Joonho Lee, David Small,
  Daniel Levine, Susi Lehtola, Hugh Burton, Evgeny Epifanovsky,
  Bang C. Huynh
 -----------------------------------------------------------------------
 Exchange:     0.2000 Hartree-Fock + 0.0800 Slater + 0.7200 B88
 Correlation:  0.1900 VWN1RPA + 0.8100 LYP
 Using SG-1 standard quadrature grid
 A restricted SCF calculation will be
 performed using DIIS
 SCF converges when DIIS error is below 1.0e-08
 ---------------------------------------
  Cycle       Energy         DIIS error
 ---------------------------------------
    1    -316.4849180730      6.62e-01  
    2    -289.8468322636      2.86e-02  
    3    -289.6118928317      4.97e-02  
    4    -290.3583532453      6.50e-03  
    5    -290.3899040612      1.07e-03  
    6    -290.3903277874      5.26e-04  
    7    -290.3904065746      1.05e-04  
    8    -290.3904102338      2.21e-05  
    9    -290.3904106523      3.68e-06  
   10    -290.3904106744      8.73e-07  
   11    -290.3904106720      1.32e-07  
   12    -290.3904106750      1.30e-08  
   13    -290.3904106756      6.24e-09  Convergence criterion met
 ---------------------------------------
 SCF time:   CPU 2.21s  wall 2.00s 
 SCF   energy in the final basis set =     -290.3904106756
 Total energy in the final basis set =     -290.3904106756
 
 --------------------------------------------------------------
             Orbital Energies (a.u.) and Symmetries
 --------------------------------------------------------------
 
 Alpha MOs, Restricted
 -- Occupied --                  
-25.721 -25.715 -25.640  -4.815  -3.898  -2.870  -2.348  -2.049
  1 A1    1 B1    2 A1    3 A1    4 A1    2 B1    1 B2    5 A1                 
 -1.518  -1.383  -1.140  -1.120  -0.688  -0.517  -0.216  -0.169
  3 B1    6 A1    1 A2    2 B2    7 A1    4 B1    8 A1    5 B1                 
 -- Virtual --                   
 -0.096  -0.091  -0.002   0.002   0.004   0.009   0.030   0.030
  3 B2    9 A1   10 A1    6 B1   11 A1    4 B2   12 A1    7 B1                 
  0.047   0.073   0.081   0.102   0.114   0.121   0.124   0.167
 13 A1    8 B1    5 B2   14 A1    6 B2   15 A1    2 A2    9 B1                 
  0.192   0.274   0.286   0.307   0.344   0.346   0.361   0.432
 16 A1   17 A1   10 B1   11 B1    7 B2   18 A1   12 B1   19 A1                 
  0.593   0.647   0.897   1.043   1.102   1.209   1.332   1.347
 20 A1   13 B1   14 B1   21 A1   22 A1    8 B2    3 A2   15 B1                 
  1.348   1.360   1.563   1.582   1.894   1.976   2.615   3.410
  9 B2   23 A1   24 A1   16 B1   17 B1   25 A1   18 B1   26 A1                 
  3.578   3.649
 19 B1   27 A1                                                                 
 
 Beta MOs, Restricted
 -- Occupied --                  
-25.721 -25.715 -25.640  -4.815  -3.898  -2.870  -2.348  -2.049
  1 A1    1 B1    2 A1    3 A1    4 A1    2 B1    1 B2    5 A1                 
 -1.518  -1.383  -1.140  -1.120  -0.688  -0.517  -0.216  -0.169
  3 B1    6 A1    1 A2    2 B2    7 A1    4 B1    8 A1    5 B1                 
 -- Virtual --                   
 -0.096  -0.091  -0.002   0.002   0.004   0.009   0.030   0.030
  3 B2    9 A1   10 A1    6 B1   11 A1    4 B2   12 A1    7 B1                 
  0.047   0.073   0.081   0.102   0.114   0.121   0.124   0.167
 13 A1    8 B1    5 B2   14 A1    6 B2   15 A1    2 A2    9 B1                 
  0.192   0.274   0.286   0.307   0.344   0.346   0.361   0.432
 16 A1   17 A1   10 B1   11 B1    7 B2   18 A1   12 B1   19 A1                 
  0.593   0.647   0.897   1.043   1.102   1.209   1.332   1.347
 20 A1   13 B1   14 B1   21 A1   22 A1    8 B2    3 A2   15 B1                 
  1.348   1.360   1.563   1.582   1.894   1.976   2.615   3.410
  9 B2   23 A1   24 A1   16 B1   17 B1   25 A1   18 B1   26 A1                 
  3.578   3.649
 19 B1   27 A1                                                                 
 --------------------------------------------------------------
 
          Ground-State Mulliken Net Atomic Charges

     Atom                 Charge (a.u.)
  ----------------------------------------
      1 F                     1.218998
      2 H                    -0.164607
      3 F                    -0.163161
      4 H                    -0.164607
      5 F                     1.218998
      6 Li                   -1.945621
  ----------------------------------------
  Sum of atomic charges =     0.000000

 -----------------------------------------------------------------
                    Cartesian Multipole Moments
 -----------------------------------------------------------------
    Charge (ESU x 10^10)
                 0.0000
    Dipole Moment (Debye)
         X      -0.0000      Y       0.0000      Z      -1.4997
       Tot       1.4997
    Quadrupole Moments (Debye-Ang)
        XX     -32.5172     XY      -0.0000     YY     -27.3047
        XZ       0.0000     YZ       0.0000     ZZ     -30.6048
    Octopole Moments (Debye-Ang^2)
       XXX      -0.0000    XXY       0.0000    XYY      -0.0000
       YYY       0.0000    XXZ       5.9074    XYZ       0.0000
       YYZ      -2.9799    XZZ      -0.0000    YZZ       0.0000
       ZZZ      -8.6103
    Hexadecapole Moments (Debye-Ang^3)
      XXXX    -115.2503   XXXY      -0.0000   XXYY     -28.1031
      XYYY      -0.0000   YYYY     -64.1357   XXXZ       0.0000
      XXYZ       0.0000   XYYZ       0.0000   YYYZ       0.0000
      XXZZ     -36.8032   XYZZ      -0.0000   YYZZ     -26.0082
      XZZZ       0.0000   YZZZ       0.0000   ZZZZ     -95.6966
 -----------------------------------------------------------------
 Calculating analytic gradient of the SCF energy
 Gradient of SCF Energy
            1           2           3           4           5           6
    1  11.5134952   2.5697004   0.0000000  -2.5697004 -11.5134952   0.0000000
    2  -0.0000001   0.0000000   0.0000001   0.0000000  -0.0000000   0.0000000
    3  -1.2083417   1.4314404  11.0482878   1.4314404  -1.2083417 -11.4944852
 Max gradient component =       1.151E+01
 RMS gradient           =       5.475E+00
 Gradient time:  CPU 2.89 s  wall 2.89 s

 *****************************************************
             Starting BFGS Algorithm
 *****************************************************
            LIBOPT3 RUN PARAMETERS

  Geometry Optimization Coordinates :
	Delocalized Natural Internal Coordinates

  Step Length Selection Method :
	Eigenvector Following Algorithm

  Convergence Criteria :
	Max Gradient Component    	3.00000000e-04
	Max Displacement Component	1.20000000e-03
	Absolute Energy Difference	1.00000000e-06

  Initial Hessian :
	Approximate Hessian - Simple Internal Coordinate Scaled

  Type of Verification :
	Verify with final updated Hessian
 *****************************************************

	OPTIMIZATION CYCLE:	1

 Scaling Magnitude of Eigenvalues
 	Minimum: -25.00000000	 Maximum: 25.00000000
 12 Hessian Eigenvalues to form next step
   0.10000000   0.10000000   0.10000000   0.22360398   0.22641767
   0.23616972   0.26273036   0.26990487   0.28621547   0.33146541
   0.34264267   0.50000000

 Minimum Search taking a RFO step
 Searching for Lambda that minimizes along all modes
	Value of Lambda   -8.50681143
	Norm  of Stepsize  0.97352721
	RMS   of Stepsize  0.28103310

	Performing Iterative Coordinate Back-Transformation

	  Starting from Previous Position

	  iter:	0	rms: 9.3932813900e-02	maxdev: 2.1901531763e-01
	  iter:	1	rms: 2.1960617685e-03	maxdev: 3.8585926641e-03
	  iter:	2	rms: 2.9379546571e-06	maxdev: 7.1079106952e-06
	  iter:	3	rms: 5.5769762018e-12	maxdev: 1.0159125073e-11	 Success!

	Finished Iterative Coordinate Back-Transformation
 ----------------------------------------------------------------
             Standard Nuclear Orientation (Bohr)
    I     Atom           X                Y                Z
 ----------------------------------------------------------------
    1      F      -0.8748038309    -0.0000000009     0.3462292478
    2      H      -1.2397049530    -0.0000000002    -0.7740882194
    3      F       0.0000000000    -0.0000000026    -1.0417600051
    4      H       1.2397049530     0.0000000335    -0.7740882194
    5      F       0.8748038309     0.0000000140     0.3462292478
    6      Li     -0.0000000000    -0.0000000015     1.4183389861
 ----------------------------------------------------------------
 Molecular Point Group                 C2v   NOp =  4
 Largest Abelian Subgroup              C2v   NOp =  4
 Nuclear Repulsion Energy =         234.81356579 hartrees
 There are       16 alpha and       16 beta electrons

                       Distance Matrix (Bohrs)
             F (  1)   H (  2)   F (  3)   H (  4)   F (  5)
   H (  2)  1.178246
   F (  3)  1.640669  1.268273
   H (  4)  2.392960  2.479410  1.268273
   F (  5)  1.749608  2.392960  1.640669  1.178246
   Li(  6)  1.383727  2.518652  2.460099  2.518652  1.383727
 
 Requested basis set is 3-21++G
 There are 22 shells and 58 basis functions
 A cutoff of  1.0D-12 yielded    253 shell pairs
 There are      1783 function pairs
 Smallest overlap matrix eigenvalue = 1.13E-04
 Guess MOs from SCF MO coefficient file

 -----------------------------------------------------------------------
  General SCF calculation program by
  Eric Jon Sundstrom, Paul Horn, Yuezhi Mao, Dmitri Zuev, Alec White,
  David Stuck, Shaama M.S., Shane Yost, Joonho Lee, David Small,
  Daniel Levine, Susi Lehtola, Hugh Burton, Evgeny Epifanovsky,
  Bang C. Huynh
 -----------------------------------------------------------------------
 Exchange:     0.2000 Hartree-Fock + 0.0800 Slater + 0.7200 B88
 Correlation:  0.1900 VWN1RPA + 0.8100 LYP
 Using SG-1 standard quadrature grid
 A restricted SCF calculation will be
 performed using DIIS
 SCF converges when DIIS error is below 1.0e-08
 ---------------------------------------
  Cycle       Energy         DIIS error
 ---------------------------------------
    1    -295.8194096283      6.68e-02  
    2    -296.7145970112      2.46e-02  
    3    -296.4502734794      4.07e-02  
    4    -296.8719996263      8.63e-04  
    5    -296.8723768696      7.12e-04  
    6    -296.8725256736      1.68e-04  
    7    -296.8725561155      4.84e-05  
    8    -296.8725604439      7.68e-06  
    9    -296.8725605318      3.24e-06  
   10    -296.8725605386      5.01e-07  
   11    -296.8725605388      1.90e-07  
   12    -296.8725605388      8.18e-09  Convergence criterion met
 ---------------------------------------
 SCF time:   CPU 2.33s  wall 3.00s 
 SCF   energy in the final basis set =     -296.8725605388
 Total energy in the final basis set =     -296.8725605388
 
 --------------------------------------------------------------
             Orbital Energies (a.u.) and Symmetries
 --------------------------------------------------------------
 
 Alpha MOs, Restricted
 -- Occupied --                  
-25.322 -25.154 -25.154  -3.667  -3.041  -2.395  -1.724  -1.620
  1 A1    1 B1    2 A1    3 A1    4 A1    2 B1    1 B2    5 A1                 
 -1.297  -1.229  -0.930  -0.888  -0.805  -0.568  -0.215  -0.157
  3 B1    6 A1    1 A2    2 B2    7 A1    4 B1    5 B1    8 A1                 
 -- Virtual --                   
 -0.083  -0.053  -0.005   0.003   0.007   0.012   0.032   0.040
  9 A1    3 B2    6 B1   10 A1   11 A1    4 B2    7 B1    8 B1                 
  0.040   0.060   0.102   0.111   0.136   0.144   0.147   0.174
 12 A1   13 A1    5 B2   14 A1    6 B2   15 A1    2 A2   16 A1                 
  0.187   0.202   0.233   0.286   0.335   0.347   0.356   0.370
  9 B1   10 B1   17 A1   11 B1    7 B2   18 A1   12 B1   19 A1                 
  0.554   0.573   0.899   1.203   1.388   1.501   1.538   1.548
 13 B1   20 A1   14 B1   21 A1   22 A1    8 B2    9 B2   15 B1                 
  1.556   1.616   1.642   1.729   1.820   1.945   2.407   3.690
  3 A2   23 A1   16 B1   24 A1   17 B1   25 A1   18 B1   19 B1                 
  3.765   3.824
 26 A1   27 A1                                                                 
 
 Beta MOs, Restricted
 -- Occupied --                  
-25.322 -25.154 -25.154  -3.667  -3.041  -2.395  -1.724  -1.620
  1 A1    1 B1    2 A1    3 A1    4 A1    2 B1    1 B2    5 A1                 
 -1.297  -1.229  -0.930  -0.888  -0.805  -0.568  -0.215  -0.157
  3 B1    6 A1    1 A2    2 B2    7 A1    4 B1    5 B1    8 A1                 
 -- Virtual --                   
 -0.083  -0.053  -0.005   0.003   0.007   0.012   0.032   0.040
  9 A1    3 B2    6 B1   10 A1   11 A1    4 B2    7 B1    8 B1                 
  0.040   0.060   0.102   0.111   0.136   0.144   0.147   0.174
 12 A1   13 A1    5 B2   14 A1    6 B2   15 A1    2 A2   16 A1                 
  0.187   0.202   0.233   0.286   0.335   0.347   0.356   0.370
  9 B1   10 B1   17 A1   11 B1    7 B2   18 A1   12 B1   19 A1                 
  0.554   0.573   0.899   1.203   1.388   1.501   1.538   1.548
 13 B1   20 A1   14 B1   21 A1   22 A1    8 B2    9 B2   15 B1                 
  1.556   1.616   1.642   1.729   1.820   1.945   2.407   3.690
  3 A2   23 A1   16 B1   24 A1   17 B1   25 A1   18 B1   19 B1                 
  3.765   3.824
 26 A1   27 A1                                                                 
 --------------------------------------------------------------
 
          Ground-State Mulliken Net Atomic Charges

     Atom                 Charge (a.u.)
  ----------------------------------------
      1 F                     1.312658
      2 H                     0.550298
      3 F                    -1.726929
      4 H                     0.550298
      5 F                     1.312658
      6 Li                   -1.998983
  ----------------------------------------
  Sum of atomic charges =     0.000000

 -----------------------------------------------------------------
                    Cartesian Multipole Moments
 -----------------------------------------------------------------
    Charge (ESU x 10^10)
                 0.0000
    Dipole Moment (Debye)
         X       0.0000      Y      -0.0000      Z      -3.7404
       Tot       3.7404
    Quadrupole Moments (Debye-Ang)
        XX     -28.2814     XY      -0.0000     YY     -29.2802
        XZ      -0.0000     YZ      -0.0000     ZZ     -30.6870
    Octopole Moments (Debye-Ang^2)
       XXX       0.0000    XXY      -0.0000    XYY       0.0000
       YYY      -0.0000    XXZ      -3.1313    XYZ       0.0000
       YYZ      -6.9246    XZZ       0.0000    YZZ      -0.0000
       ZZZ     -19.5021
    Hexadecapole Moments (Debye-Ang^3)
      XXXX     -95.4440   XXXY      -0.0000   XXYY     -29.3244
      XYYY      -0.0000   YYYY     -87.8899   XXXZ      -0.0000
      XXYZ      -0.0000   XYYZ       0.0000   YYYZ      -0.0000
      XXZZ     -35.7102   XYZZ      -0.0000   YYZZ     -32.4675
      XZZZ       0.0000   YZZZ      -0.0000   ZZZZ    -111.8744
 -----------------------------------------------------------------
 Calculating analytic gradient of the SCF energy
 Gradient of SCF Energy
            1           2           3           4           5           6
    1   6.7005811   1.7691538   0.0000000  -1.7691538  -6.7005811   0.0000000
    2   0.0000000   0.0000000   0.0000001  -0.0000001  -0.0000001   0.0000000
    3  -1.4308637   1.1210272   6.3244424   1.1210272  -1.4308637  -5.7047694
 Max gradient component =       6.701E+00
 RMS gradient           =       3.120E+00
 Gradient time:  CPU 2.86 s  wall 2.86 s

     Step 1	:
        Energy is -296.8725605388
                            Maximum         Tolerance       Converged?
         Gradient           4.48238054e+00	3.00000000e-04	false
         Displacement       8.23199955e-01	1.20000000e-03	false
         Energy change      6.48214986e+00	1.00000000e-06	false


	OPTIMIZATION CYCLE:	2

 Scaling Magnitude of Eigenvalues
 	Minimum: -25.00000000	 Maximum: 25.00000000
 12 Hessian Eigenvalues to form next step
   0.10000000   0.10000000   0.10000000   0.22365278   0.22641767
   0.24061218   0.26200133   0.26990487   0.28621547   0.33978400
   0.34264267   3.87345126

 Minimum Search taking a RFO step
 Searching for Lambda that minimizes along all modes
	Value of Lambda   -3.65671198
	Norm  of Stepsize  0.73571205
	RMS   of Stepsize  0.21238177

	Performing Iterative Coordinate Back-Transformation

	  Starting from Previous Position

	  iter:	0	rms: 7.2647547397e-02	maxdev: 1.2379688494e-01
	  iter:	1	rms: 1.0761349705e-03	maxdev: 2.2091030484e-03
	  iter:	2	rms: 5.8256277753e-07	maxdev: 1.1420625399e-06	 Success!

	Finished Iterative Coordinate Back-Transformation
 ----------------------------------------------------------------
             Standard Nuclear Orientation (Bohr)
    I     Atom           X                Y                Z
 ----------------------------------------------------------------
    1      F      -0.9922838996    -0.0000000017     0.3940223362
    2      H      -1.3631428131    -0.0000000010    -0.8231983310
    3      F      -0.0000000000    -0.0000000041    -1.1584965058
    4      H       1.3631428131     0.0000000364    -0.8231983310
    5      F       0.9922838996     0.0000000148     0.3940223362
    6      Li      0.0000000000    -0.0000000021     1.5377095331
 ----------------------------------------------------------------
 Molecular Point Group                 C2v   NOp =  4
 Largest Abelian Subgroup              C2v   NOp =  4
 Nuclear Repulsion Energy =         210.73989293 hartrees
 There are       16 alpha and       16 beta electrons

                       Distance Matrix (Bohrs)
             F (  1)   H (  2)   F (  3)   H (  4)   F (  5)
   H (  2)  1.272463
   F (  3)  1.842537  1.403775
   H (  4)  2.651351  2.726286  1.403775
   F (  5)  1.984568  2.651351  1.842537  1.272463
   Li(  6)  1.514149  2.726178  2.696206  2.726178  1.514149
 
 Requested basis set is 3-21++G
 There are 22 shells and 58 basis functions
 A cutoff of  1.0D-12 yielded    253 shell pairs
 There are      1783 function pairs
 Smallest overlap matrix eigenvalue = 2.30E-04
 Guess MOs from SCF MO coefficient file

 -----------------------------------------------------------------------
  General SCF calculation program by
  Eric Jon Sundstrom, Paul Horn, Yuezhi Mao, Dmitri Zuev, Alec White,
  David Stuck, Shaama M.S., Shane Yost, Joonho Lee, David Small,
  Daniel Levine, Susi Lehtola, Hugh Burton, Evgeny Epifanovsky,
  Bang C. Huynh
 -----------------------------------------------------------------------
 Exchange:     0.2000 Hartree-Fock + 0.0800 Slater + 0.7200 B88
 Correlation:  0.1900 VWN1RPA + 0.8100 LYP
 Using SG-1 standard quadrature grid
 A restricted SCF calculation will be
 performed using DIIS
 SCF converges when DIIS error is below 1.0e-08
 ---------------------------------------
  Cycle       Energy         DIIS error
 ---------------------------------------
    1    -299.6472935092      3.98e-02  
    2    -299.9657047172      1.15e-02  
    3    -299.8207982955      2.62e-02  
    4    -300.0056172392      1.98e-03  
    5    -300.0067251482      9.11e-04  
    6    -300.0071140988      1.53e-04  
    7    -300.0071794607      1.22e-04  
    8    -300.0071931385      1.37e-05  
    9    -300.0071933168      5.49e-06  
   10    -300.0071933340      7.26e-07  
   11    -300.0071933342      2.64e-08  
   12    -300.0071933342      7.70e-09  Convergence criterion met
 ---------------------------------------
 SCF time:   CPU 2.00s  wall 2.00s 
 SCF   energy in the final basis set =     -300.0071933342
 Total energy in the final basis set =     -300.0071933342
 
 --------------------------------------------------------------
             Orbital Energies (a.u.) and Symmetries
 --------------------------------------------------------------
 
 Alpha MOs, Restricted
 -- Occupied --                  
-24.954 -24.851 -24.850  -3.019  -2.514  -1.945  -1.296  -1.274
  1 A1    2 A1    1 B1    3 A1    4 A1    2 B1    1 B2    5 A1                 
 -1.112  -1.093  -0.727  -0.677  -0.676  -0.493  -0.216  -0.129
  3 B1    6 A1    1 A2    2 B2    7 A1    4 B1    5 B1    8 A1                 
 -- Virtual --                   
 -0.061  -0.020  -0.003   0.004   0.009   0.018   0.035   0.045
  9 A1    3 B2    6 B1   10 A1   11 A1    4 B2    7 B1   12 A1                 
  0.045   0.059   0.142   0.143   0.173   0.173   0.182   0.185
  8 B1   13 A1    5 B2   14 A1   15 A1    6 B2   16 A1    2 A2                 
  0.206   0.229   0.249   0.307   0.348   0.357   0.386   0.403
  9 B1   10 B1   17 A1   11 B1   18 A1    7 B2   12 B1   19 A1                 
  0.583   0.585   0.912   1.275   1.515   1.706   1.743   1.747
 20 A1   13 B1   14 B1   21 A1   22 A1    8 B2    9 B2   15 B1                 
  1.765   1.815   1.854   1.855   2.064   2.184   2.422   3.888
  3 A2   16 B1   17 B1   23 A1   24 A1   25 A1   18 B1   19 B1                 
  3.907   4.070
 26 A1   27 A1                                                                 
 
 Beta MOs, Restricted
 -- Occupied --                  
-24.954 -24.851 -24.850  -3.019  -2.514  -1.945  -1.296  -1.274
  1 A1    2 A1    1 B1    3 A1    4 A1    2 B1    1 B2    5 A1                 
 -1.112  -1.093  -0.727  -0.677  -0.676  -0.493  -0.216  -0.129
  3 B1    6 A1    1 A2    2 B2    7 A1    4 B1    5 B1    8 A1                 
 -- Virtual --                   
 -0.061  -0.020  -0.003   0.004   0.009   0.018   0.035   0.045
  9 A1    3 B2    6 B1   10 A1   11 A1    4 B2    7 B1   12 A1                 
  0.045   0.059   0.142   0.143   0.173   0.173   0.182   0.185
  8 B1   13 A1    5 B2   14 A1   15 A1    6 B2   16 A1    2 A2                 
  0.206   0.229   0.249   0.307   0.348   0.357   0.386   0.403
  9 B1   10 B1   17 A1   11 B1   18 A1    7 B2   12 B1   19 A1                 
  0.583   0.585   0.912   1.275   1.515   1.706   1.743   1.747
 20 A1   13 B1   14 B1   21 A1   22 A1    8 B2    9 B2   15 B1                 
  1.765   1.815   1.854   1.855   2.064   2.184   2.422   3.888
  3 A2   16 B1   17 B1   23 A1   24 A1   25 A1   18 B1   19 B1                 
  3.907   4.070
 26 A1   27 A1                                                                 
 --------------------------------------------------------------
 
          Ground-State Mulliken Net Atomic Charges

     Atom                 Charge (a.u.)
  ----------------------------------------
      1 F                     0.608902
      2 H                     0.664500
      3 F                    -0.930367
      4 H                     0.664500
      5 F                     0.608902
      6 Li                   -1.616436
  ----------------------------------------
  Sum of atomic charges =     0.000000

 -----------------------------------------------------------------
                    Cartesian Multipole Moments
 -----------------------------------------------------------------
    Charge (ESU x 10^10)
                 0.0000
    Dipole Moment (Debye)
         X      -0.0000      Y      -0.0000      Z      -3.4645
       Tot       3.4645
    Quadrupole Moments (Debye-Ang)
        XX     -25.0315     XY      -0.0000     YY     -22.5258
        XZ       0.0000     YZ      -0.0000     ZZ     -31.1858
    Octopole Moments (Debye-Ang^2)
       XXX      -0.0000    XXY      -0.0000    XYY      -0.0000
       YYY      -0.0000    XXZ      -5.6286    XYZ       0.0000
       YYZ      -7.8885    XZZ      -0.0000    YZZ      -0.0000
       ZZZ     -18.2873
    Hexadecapole Moments (Debye-Ang^3)
      XXXX     -75.2227   XXXY      -0.0000   XXYY     -20.2406
      XYYY      -0.0000   YYYY     -53.5182   XXXZ       0.0000
      XXYZ      -0.0000   XYYZ      -0.0000   YYYZ      -0.0000
      XXZZ     -36.5465   XYZZ      -0.0000   YYZZ     -29.5787
      XZZZ      -0.0000   YZZZ      -0.0000   ZZZZ    -132.7366
 -----------------------------------------------------------------
 Calculating analytic gradient of the SCF energy
 Gradient of SCF Energy
            1           2           3           4           5           6
    1   4.9026692   1.1954108   0.0000000  -1.1954108  -4.9026692   0.0000000
    2   0.0000000  -0.0000000   0.0000000  -0.0000000  -0.0000001   0.0000000
    3  -1.2213921   0.7675889   4.7616339   0.7675889  -1.2213921  -3.8540275
 Max gradient component =       4.903E+00
 RMS gradient           =       2.268E+00
 Gradient time:  CPU 2.20 s  wall 2.20 s

     Step 2	:
        Energy is -300.0071933342
                            Maximum         Tolerance       Converged?
         Gradient           3.23442575e+00	3.00000000e-04	false
         Displacement       6.71354215e-01	1.20000000e-03	false
         Energy change      3.13463280e+00	1.00000000e-06	false


	OPTIMIZATION CYCLE:	3

 Scaling Magnitude of Eigenvalues
 	Minimum: -25.00000000	 Maximum: 25.00000000
 12 Hessian Eigenvalues to form next step
   0.10000000   0.10000000   0.10000000   0.22400443   0.22641767
   0.23728527   0.26660243   0.26990487   0.28621547   0.34264267
   0.38086859   2.02047751

 Minimum Search taking a RFO step
 Searching for Lambda that minimizes along all modes
	Value of Lambda   -2.86210414
	Norm  of Stepsize  0.77790057
	RMS   of Stepsize  0.22456055

	Performing Iterative Coordinate Back-Transformation

	  Starting from Previous Position

	  iter:	0	rms: 7.4854989578e-02	maxdev: 1.3674787617e-01
	  iter:	1	rms: 1.3291588484e-03	maxdev: 2.4286277834e-03
	  iter:	2	rms: 1.0204493505e-06	maxdev: 1.6816154605e-06
	  iter:	3	rms: 1.2354369131e-12	maxdev: 3.5356281634e-12	 Success!

	Finished Iterative Coordinate Back-Transformation
 ----------------------------------------------------------------
             Standard Nuclear Orientation (Bohr)
    I     Atom           X                Y                Z
 ----------------------------------------------------------------
    1      F      -1.1282465631    -0.0000000025     0.4288397776
    2      H      -1.4723034473    -0.0000000016    -0.8596317593
    3      F      -0.0000000000    -0.0000000058    -1.2901857677
    4      H       1.4723034473     0.0000000390    -0.8596317593
    5      F       1.1282465631     0.0000000159     0.4288397776
    6      Li      0.0000000000    -0.0000000027     1.6726307689
 ----------------------------------------------------------------
 Molecular Point Group                 C2v   NOp =  4
 Largest Abelian Subgroup              C2v   NOp =  4
 Nuclear Repulsion Energy =         189.77344081 hartrees
 There are       16 alpha and       16 beta electrons

                       Distance Matrix (Bohrs)
             F (  1)   H (  2)   F (  3)   H (  4)   F (  5)
   H (  2)  1.333617
   F (  3)  2.056207  1.533967
   H (  4)  2.902244  2.944607  1.533967
   F (  5)  2.256493  2.902244  2.056207  1.333617
   Li(  6)  1.679273  2.929169  2.962817  2.929169  1.679273
 
 Requested basis set is 3-21++G
 There are 22 shells and 58 basis functions
 A cutoff of  1.0D-12 yielded    252 shell pairs
 There are      1782 function pairs
 Smallest overlap matrix eigenvalue = 4.53E-04
 Guess MOs from SCF MO coefficient file

 -----------------------------------------------------------------------
  General SCF calculation program by
  Eric Jon Sundstrom, Paul Horn, Yuezhi Mao, Dmitri Zuev, Alec White,
  David Stuck, Shaama M.S., Shane Yost, Joonho Lee, David Small,
  Daniel Levine, Susi Lehtola, Hugh Burton, Evgeny Epifanovsky,
  Bang C. Huynh
 -----------------------------------------------------------------------
 Exchange:     0.2000 Hartree-Fock + 0.0800 Slater + 0.7200 B88
 Correlation:  0.1900 VWN1RPA + 0.8100 LYP
 Using SG-1 standard quadrature grid
 A restricted SCF calculation will be
 performed using DIIS
 SCF converges when DIIS error is below 1.0e-08
 ---------------------------------------
  Cycle       Energy         DIIS error
 ---------------------------------------
    1    -302.1910606394      2.99e-02  
    2    -302.3892092809      7.67e-03  
    3    -302.3610930893      1.26e-02  
    4    -302.3982896241      3.93e-03  
    5    -302.4030208974      3.92e-04  
    6    -302.4030733294      1.34e-04  
    7    -302.4030815969      1.05e-05  
    8    -302.4030819075      3.79e-06  
    9    -302.4030819291      6.02e-07  
   10    -302.4030819293      1.93e-07  
   11    -302.4030819294      4.58e-09  Convergence criterion met
 ---------------------------------------
 SCF time:   CPU 1.56s  wall 1.00s 
 SCF   energy in the final basis set =     -302.4030819294
 Total energy in the final basis set =     -302.4030819294
 
 --------------------------------------------------------------
             Orbital Energies (a.u.) and Symmetries
 --------------------------------------------------------------
 
 Alpha MOs, Restricted
 -- Occupied --                  
-24.699 -24.672 -24.671  -2.551  -2.100  -1.645  -1.083  -0.981
  1 A1    2 A1    1 B1    3 A1    4 A1    2 B1    5 A1    1 B2                 
 -0.972  -0.964  -0.612  -0.587  -0.518  -0.442  -0.220  -0.140
  3 B1    6 A1    7 A1    1 A2    2 B2    4 B1    5 B1    8 A1                 
 -- Virtual --                   
 -0.039  -0.006   0.001   0.002   0.015   0.028   0.040   0.041
  9 A1    3 B2    6 B1   10 A1   11 A1    4 B2   12 A1    7 B1                 
  0.050   0.063   0.158   0.186   0.197   0.199   0.212   0.215
  8 B1   13 A1   14 A1    5 B2    6 B2   15 A1   16 A1    2 A2                 
  0.229   0.250   0.280   0.320   0.350   0.365   0.411   0.436
  9 B1   10 B1   17 A1   11 B1   18 A1    7 B2   12 B1   19 A1                 
  0.587   0.611   0.894   1.331   1.626   1.744   1.815   1.927
 20 A1   13 B1   14 B1   21 A1   22 A1   15 B1    8 B2    9 B2                 
  1.929   1.930   1.969   2.027   2.277   2.413   2.540   3.947
 16 B1    3 A2   23 A1   17 B1   24 A1   25 A1   18 B1   26 A1                 
  4.060   4.075
 19 B1   27 A1                                                                 
 
 Beta MOs, Restricted
 -- Occupied --                  
-24.699 -24.672 -24.671  -2.551  -2.100  -1.645  -1.083  -0.981
  1 A1    2 A1    1 B1    3 A1    4 A1    2 B1    5 A1    1 B2                 
 -0.972  -0.964  -0.612  -0.587  -0.518  -0.442  -0.220  -0.140
  3 B1    6 A1    7 A1    1 A2    2 B2    4 B1    5 B1    8 A1                 
 -- Virtual --                   
 -0.039  -0.006   0.001   0.002   0.015   0.028   0.040   0.041
  9 A1    3 B2    6 B1   10 A1   11 A1    4 B2   12 A1    7 B1                 
  0.050   0.063   0.158   0.186   0.197   0.199   0.212   0.215
  8 B1   13 A1   14 A1    5 B2    6 B2   15 A1   16 A1    2 A2                 
  0.229   0.250   0.280   0.320   0.350   0.365   0.411   0.436
  9 B1   10 B1   17 A1   11 B1   18 A1    7 B2   12 B1   19 A1                 
  0.587   0.611   0.894   1.331   1.626   1.744   1.815   1.927
 20 A1   13 B1   14 B1   21 A1   22 A1   15 B1    8 B2    9 B2                 
  1.929   1.930   1.969   2.027   2.277   2.413   2.540   3.947
 16 B1    3 A2   23 A1   17 B1   24 A1   25 A1   18 B1   26 A1                 
  4.060   4.075
 19 B1   27 A1                                                                 
 --------------------------------------------------------------
 
          Ground-State Mulliken Net Atomic Charges

     Atom                 Charge (a.u.)
  ----------------------------------------
      1 F                     0.039970
      2 H                     0.570779
      3 F                    -0.522372
      4 H                     0.570779
      5 F                     0.039970
      6 Li                   -0.699126
  ----------------------------------------
  Sum of atomic charges =     0.000000

 -----------------------------------------------------------------
                    Cartesian Multipole Moments
 -----------------------------------------------------------------
    Charge (ESU x 10^10)
                 0.0000
    Dipole Moment (Debye)
         X      -0.0000      Y      -0.0000      Z      -0.9832
       Tot       0.9832
    Quadrupole Moments (Debye-Ang)
        XX     -22.7412     XY      -0.0000     YY     -19.1509
        XZ       0.0000     YZ      -0.0000     ZZ     -26.8871
    Octopole Moments (Debye-Ang^2)
       XXX      -0.0000    XXY      -0.0000    XYY      -0.0000
       YYY      -0.0000    XXZ      -4.2211    XYZ      -0.0000
       YYZ      -3.0524    XZZ      -0.0000    YZZ      -0.0000
       ZZZ      -6.2218
    Hexadecapole Moments (Debye-Ang^3)
      XXXX     -64.7705   XXXY      -0.0000   XXYY     -14.6542
      XYYY      -0.0000   YYYY     -27.3483   XXXZ       0.0000
      XXYZ      -0.0000   XYYZ       0.0000   YYYZ      -0.0000
      XXZZ     -30.2461   XYZZ      -0.0000   YYZZ     -21.1467
      XZZZ       0.0000   YZZZ      -0.0000   ZZZZ    -108.6758
 -----------------------------------------------------------------
 Calculating analytic gradient of the SCF energy
 Gradient of SCF Energy
            1           2           3           4           5           6
    1   3.2045948   0.7886695  -0.0000000  -0.7886695  -3.2045948   0.0000000
    2   0.0000000  -0.0000000   0.0000000  -0.0000000  -0.0000000   0.0000000
    3  -1.1049072   0.5766275   3.5022892   0.5766275  -1.1049072  -2.4457296
 Max gradient component =       3.502E+00
 RMS gradient           =       1.548E+00
 Gradient time:  CPU 2.17 s  wall 2.17 s

     Step 3	:
        Energy is -302.4030819294
                            Maximum         Tolerance       Converged?
         Gradient           2.23119599e+00	3.00000000e-04	false
         Displacement       6.67808109e-01	1.20000000e-03	false
         Energy change      2.39588860e+00	1.00000000e-06	false


	OPTIMIZATION CYCLE:	4

 Scaling Magnitude of Eigenvalues
 	Minimum: -25.00000000	 Maximum: 25.00000000
 12 Hessian Eigenvalues to form next step
   0.10000000   0.10000000   0.10000000   0.22429332   0.22641767
   0.23919829   0.26990487   0.27014608   0.28621547   0.34264267
   0.36765731   1.62125603

 Minimum Search taking a RFO step
 Searching for Lambda that minimizes along all modes
	Value of Lambda   -1.92457681
	Norm  of Stepsize  0.77006480
	RMS   of Stepsize  0.22229856

	Performing Iterative Coordinate Back-Transformation

	  Starting from Previous Position

	  iter:	0	rms: 7.4246385818e-02	maxdev: 1.4933082935e-01
	  iter:	1	rms: 1.2351876675e-03	maxdev: 3.2027508002e-03
	  iter:	2	rms: 7.0727431814e-07	maxdev: 1.7705395329e-06	 Success!

	Finished Iterative Coordinate Back-Transformation
 ----------------------------------------------------------------
             Standard Nuclear Orientation (Bohr)
    I     Atom           X                Y                Z
 ----------------------------------------------------------------
    1      F      -1.2451560480    -0.0000000033     0.4920283340
    2      H      -1.5775800592    -0.0000000024    -0.9064890374
    3      F      -0.0000000000    -0.0000000070    -1.4427185172
    4      H       1.5775800592     0.0000000414    -0.9064890374
    5      F       1.2451560480     0.0000000165     0.4920283340
    6      Li     -0.0000000000    -0.0000000030     1.7925009617
 ----------------------------------------------------------------
 Molecular Point Group                 C2v   NOp =  4
 Largest Abelian Subgroup              C2v   NOp =  4
 Nuclear Repulsion Energy =         172.54941656 hartrees
 There are       16 alpha and       16 beta electrons

                       Distance Matrix (Bohrs)
             F (  1)   H (  2)   F (  3)   H (  4)   F (  5)
   H (  2)  1.437483
   F (  3)  2.300795  1.666224
   H (  4)  3.150189  3.155160  1.666224
   F (  5)  2.490312  3.150189  2.300795  1.437483
   Li(  6)  1.800456  3.126229  3.235219  3.126229  1.800456
 
 Requested basis set is 3-21++G
 There are 22 shells and 58 basis functions
 A cutoff of  1.0D-12 yielded    250 shell pairs
 There are      1780 function pairs
 Smallest overlap matrix eigenvalue = 8.67E-04
 Guess MOs from SCF MO coefficient file

 -----------------------------------------------------------------------
  General SCF calculation program by
  Eric Jon Sundstrom, Paul Horn, Yuezhi Mao, Dmitri Zuev, Alec White,
  David Stuck, Shaama M.S., Shane Yost, Joonho Lee, David Small,
  Daniel Levine, Susi Lehtola, Hugh Burton, Evgeny Epifanovsky,
  Bang C. Huynh
 -----------------------------------------------------------------------
 Exchange:     0.2000 Hartree-Fock + 0.0800 Slater + 0.7200 B88
 Correlation:  0.1900 VWN1RPA + 0.8100 LYP
 Using SG-1 standard quadrature grid
 A restricted SCF calculation will be
 performed using DIIS
 SCF converges when DIIS error is below 1.0e-08
 ---------------------------------------
  Cycle       Energy         DIIS error
 ---------------------------------------
    1    -303.8882606233      2.11e-02  
    2    -303.9918486041      4.36e-03  
    3    -303.9895292392      5.31e-03  
    4    -303.9956152860      1.31e-03  
    5    -303.9961241053      2.25e-04  
    6    -303.9961342012      5.98e-05  
    7    -303.9961354335      4.90e-06  
    8    -303.9961354429      5.56e-07  
    9    -303.9961354431      3.77e-08  
   10    -303.9961354431      7.47e-09  Convergence criterion met
 ---------------------------------------
 SCF time:   CPU 1.41s  wall 1.00s 
 SCF   energy in the final basis set =     -303.9961354431
 Total energy in the final basis set =     -303.9961354431
 
 --------------------------------------------------------------
             Orbital Energies (a.u.) and Symmetries
 --------------------------------------------------------------
 
 Alpha MOs, Restricted
 -- Occupied --                  
-24.579 -24.579 -24.552  -2.314  -1.781  -1.431  -1.042  -0.870
  1 B1    1 A1    2 A1    3 A1    4 A1    2 B1    5 A1    3 B1                 
 -0.796  -0.770  -0.562  -0.496  -0.425  -0.399  -0.235  -0.169
  6 A1    1 B2    7 A1    1 A2    2 B2    4 B1    5 B1    8 A1                 
 -- Virtual --                   
 -0.030   0.001   0.002   0.004   0.017   0.036   0.041   0.046
  9 A1    3 B2   10 A1    6 B1   11 A1    4 B2   12 A1    7 B1                 
  0.057   0.070   0.156   0.206   0.227   0.230   0.236   0.243
  8 B1   13 A1   14 A1    5 B2   15 A1    6 B2    2 A2   16 A1                 
  0.250   0.262   0.303   0.328   0.354   0.370   0.429   0.458
  9 B1   10 B1   17 A1   11 B1   18 A1    7 B2   12 B1   19 A1                 
  0.561   0.605   0.894   1.341   1.635   1.708   1.864   2.023
 20 A1   13 B1   14 B1   21 A1   15 B1   22 A1    8 B2   16 B1                 
  2.032   2.061   2.082   2.179   2.373   2.467   2.633   3.784
  3 A2    9 B2   23 A1   17 B1   24 A1   25 A1   18 B1   26 A1                 
  4.066   4.137
 27 A1   19 B1                                                                 
 
 Beta MOs, Restricted
 -- Occupied --                  
-24.579 -24.579 -24.552  -2.314  -1.781  -1.431  -1.042  -0.870
  1 B1    1 A1    2 A1    3 A1    4 A1    2 B1    5 A1    3 B1                 
 -0.796  -0.770  -0.562  -0.496  -0.425  -0.399  -0.235  -0.169
  6 A1    1 B2    7 A1    1 A2    2 B2    4 B1    5 B1    8 A1                 
 -- Virtual --                   
 -0.030   0.001   0.002   0.004   0.017   0.036   0.041   0.046
  9 A1    3 B2   10 A1    6 B1   11 A1    4 B2   12 A1    7 B1                 
  0.057   0.070   0.156   0.206   0.227   0.230   0.236   0.243
  8 B1   13 A1   14 A1    5 B2   15 A1    6 B2    2 A2   16 A1                 
  0.250   0.262   0.303   0.328   0.354   0.370   0.429   0.458
  9 B1   10 B1   17 A1   11 B1   18 A1    7 B2   12 B1   19 A1                 
  0.561   0.605   0.894   1.341   1.635   1.708   1.864   2.023
 20 A1   13 B1   14 B1   21 A1   15 B1   22 A1    8 B2   16 B1                 
  2.032   2.061   2.082   2.179   2.373   2.467   2.633   3.784
  3 A2    9 B2   23 A1   17 B1   24 A1   25 A1   18 B1   26 A1                 
  4.066   4.137
 27 A1   19 B1                                                                 
 --------------------------------------------------------------
 
          Ground-State Mulliken Net Atomic Charges

     Atom                 Charge (a.u.)
  ----------------------------------------
      1 F                    -0.227216
      2 H                     0.614736
      3 F                    -0.532966
      4 H                     0.614736
      5 F                    -0.227216
      6 Li                   -0.242074
  ----------------------------------------
  Sum of atomic charges =     0.000000

 -----------------------------------------------------------------
                    Cartesian Multipole Moments
 -----------------------------------------------------------------
    Charge (ESU x 10^10)
                 0.0000
    Dipole Moment (Debye)
         X      -0.0000      Y       0.0000      Z       0.9209
       Tot       0.9209
    Quadrupole Moments (Debye-Ang)
        XX     -21.0732     XY      -0.0000     YY     -18.0861
        XZ       0.0000     YZ      -0.0000     ZZ     -22.1469
    Octopole Moments (Debye-Ang^2)
       XXX       0.0000    XXY      -0.0000    XYY      -0.0000
       YYY      -0.0000    XXZ      -3.7091    XYZ      -0.0000
       YYZ      -0.4093    XZZ       0.0000    YZZ      -0.0000
       ZZZ       3.4159
    Hexadecapole Moments (Debye-Ang^3)
      XXXX     -60.4792   XXXY      -0.0000   XXYY     -12.7166
      XYYY      -0.0000   YYYY     -18.4291   XXXZ       0.0000
      XXYZ      -0.0000   XYYZ      -0.0000   YYYZ      -0.0000
      XXZZ     -24.1653   XYZZ      -0.0000   YYZZ     -15.4678
      XZZZ       0.0000   YZZZ      -0.0000   ZZZZ     -80.0951
 -----------------------------------------------------------------
 Calculating analytic gradient of the SCF energy
 Gradient of SCF Energy
            1           2           3           4           5           6
    1   2.1484381   0.4723156  -0.0000000  -0.4723156  -2.1484381   0.0000000
    2   0.0000000  -0.0000000   0.0000000  -0.0000000  -0.0000000   0.0000000
    3  -0.6726011   0.3708376   2.3332498   0.3708376  -0.6726011  -1.7297228
 Max gradient component =       2.333E+00
 RMS gradient           =       1.035E+00
 Gradient time:  CPU 2.18 s  wall 2.18 s

     Step 4	:
        Energy is -303.9961354431
                            Maximum         Tolerance       Converged?
         Gradient           1.48240680e+00	3.00000000e-04	false
         Displacement       6.69269118e-01	1.20000000e-03	false
         Energy change      1.59305351e+00	1.00000000e-06	false


	OPTIMIZATION CYCLE:	5

 Scaling Magnitude of Eigenvalues
 	Minimum: -25.00000000	 Maximum: 25.00000000
 12 Hessian Eigenvalues to form next step
   0.10000000   0.10000000   0.10000000   0.22452138   0.22641767
   0.24869460   0.26990487   0.27005797   0.28621547   0.34264267
   0.42363912   1.09133480

 Minimum Search taking a RFO step
 Searching for Lambda that minimizes along all modes
	Value of Lambda   -1.25463028
	Norm  of Stepsize  0.73417882
	RMS   of Stepsize  0.21193917

	Performing Iterative Coordinate Back-Transformation

	  Starting from Previous Position

	  iter:	0	rms: 7.0824155306e-02	maxdev: 1.4036203143e-01
	  iter:	1	rms: 9.4528763970e-04	maxdev: 1.7273908492e-03
	  iter:	2	rms: 5.4256145698e-07	maxdev: 8.5649145197e-07	 Success!

	Finished Iterative Coordinate Back-Transformation
 ----------------------------------------------------------------
             Standard Nuclear Orientation (Bohr)
    I     Atom           X                Y                Z
 ----------------------------------------------------------------
    1      F      -1.3757307895    -0.0000000043     0.5202257523
    2      H      -1.6652840219    -0.0000000034    -0.9372281650
    3      F       0.0000000000    -0.0000000074    -1.5773870709
    4      H       1.6652840219     0.0000000429    -0.9372281650
    5      F       1.3757307895     0.0000000176     0.5202257523
    6      Li      0.0000000000    -0.0000000032     1.9322529341
 ----------------------------------------------------------------
 Molecular Point Group                 C2v   NOp =  4
 Largest Abelian Subgroup              C2v   NOp =  4
 Nuclear Repulsion Energy =         158.75295701 hartrees
 There are       16 alpha and       16 beta electrons

                       Distance Matrix (Bohrs)
             F (  1)   H (  2)   F (  3)   H (  4)   F (  5)
   H (  2)  1.485938
   F (  3)  2.508508  1.784089
   H (  4)  3.372231  3.330568  1.784089
   F (  5)  2.751462  3.372231  2.508508  1.485938
   Li(  6)  1.971410  3.317694  3.509640  3.317694  1.971410
 
 Requested basis set is 3-21++G
 There are 22 shells and 58 basis functions
 A cutoff of  1.0D-12 yielded    250 shell pairs
 There are      1780 function pairs
 Smallest overlap matrix eigenvalue = 1.42E-03
 Guess MOs from SCF MO coefficient file

 -----------------------------------------------------------------------
  General SCF calculation program by
  Eric Jon Sundstrom, Paul Horn, Yuezhi Mao, Dmitri Zuev, Alec White,
  David Stuck, Shaama M.S., Shane Yost, Joonho Lee, David Small,
  Daniel Levine, Susi Lehtola, Hugh Burton, Evgeny Epifanovsky,
  Bang C. Huynh
 -----------------------------------------------------------------------
 Exchange:     0.2000 Hartree-Fock + 0.0800 Slater + 0.7200 B88
 Correlation:  0.1900 VWN1RPA + 0.8100 LYP
 Using SG-1 standard quadrature grid
 A restricted SCF calculation will be
 performed using DIIS
 SCF converges when DIIS error is below 1.0e-08
 ---------------------------------------
  Cycle       Energy         DIIS error
 ---------------------------------------
    1    -304.9755936466      1.34e-02  
    2    -305.0204762782      2.45e-03  
    3    -305.0186992243      3.70e-03  
    4    -305.0220890470      3.10e-04  
    5    -305.0221111342      1.15e-04  
    6    -305.0221141134      1.49e-05  
    7    -305.0221141874      6.97e-07  
    8    -305.0221141877      1.08e-07  
    9    -305.0221141877      6.50e-09  Convergence criterion met
 ---------------------------------------
 SCF time:   CPU 1.30s  wall 2.00s 
 SCF   energy in the final basis set =     -305.0221141877
 Total energy in the final basis set =     -305.0221141877
 
 --------------------------------------------------------------
             Orbital Energies (a.u.) and Symmetries
 --------------------------------------------------------------
 
 Alpha MOs, Restricted
 -- Occupied --                  
-24.552 -24.552 -24.492  -2.150  -1.599  -1.344  -1.046  -0.802
  1 B1    1 A1    2 A1    3 A1    4 A1    2 B1    5 A1    3 B1                 
 -0.696  -0.653  -0.567  -0.460  -0.395  -0.377  -0.258  -0.195
  6 A1    1 B2    7 A1    1 A2    4 B1    2 B2    5 B1    8 A1                 
 -- Virtual --                   
 -0.029   0.003   0.004   0.005   0.016   0.039   0.044   0.046
  9 A1    3 B2   10 A1    6 B1   11 A1    4 B2   12 A1    7 B1                 
  0.061   0.072   0.154   0.203   0.238   0.245   0.250   0.261
  8 B1   13 A1   14 A1    5 B2   15 A1    2 A2    6 B2    9 B1                 
  0.264   0.267   0.313   0.329   0.356   0.368   0.434   0.470
 10 B1   16 A1   17 A1   11 B1   18 A1    7 B2   12 B1   19 A1                 
  0.538   0.582   0.861   1.343   1.543   1.769   1.884   2.073
 20 A1   13 B1   14 B1   21 A1   15 B1   22 A1    8 B2    3 A2                 
  2.101   2.132   2.170   2.289   2.327   2.377   2.641   3.630
 16 B1    9 B2   23 A1   17 B1   24 A1   25 A1   18 B1   26 A1                 
  4.079   4.126
 27 A1   19 B1                                                                 
 
 Beta MOs, Restricted
 -- Occupied --                  
-24.552 -24.552 -24.492  -2.150  -1.599  -1.344  -1.046  -0.802
  1 B1    1 A1    2 A1    3 A1    4 A1    2 B1    5 A1    3 B1                 
 -0.696  -0.653  -0.567  -0.460  -0.395  -0.377  -0.258  -0.195
  6 A1    1 B2    7 A1    1 A2    4 B1    2 B2    5 B1    8 A1                 
 -- Virtual --                   
 -0.029   0.003   0.004   0.005   0.016   0.039   0.044   0.046
  9 A1    3 B2   10 A1    6 B1   11 A1    4 B2   12 A1    7 B1                 
  0.061   0.072   0.154   0.203   0.238   0.245   0.250   0.261
  8 B1   13 A1   14 A1    5 B2   15 A1    2 A2    6 B2    9 B1                 
  0.264   0.267   0.313   0.329   0.356   0.368   0.434   0.470
 10 B1   16 A1   17 A1   11 B1   18 A1    7 B2   12 B1   19 A1                 
  0.538   0.582   0.861   1.343   1.543   1.769   1.884   2.073
 20 A1   13 B1   14 B1   21 A1   15 B1   22 A1    8 B2    3 A2                 
  2.101   2.132   2.170   2.289   2.327   2.377   2.641   3.630
 16 B1    9 B2   23 A1   17 B1   24 A1   25 A1   18 B1   26 A1                 
  4.079   4.126
 27 A1   19 B1                                                                 
 --------------------------------------------------------------
 
          Ground-State Mulliken Net Atomic Charges

     Atom                 Charge (a.u.)
  ----------------------------------------
      1 F                    -0.347873
      2 H                     0.650250
      3 F                    -0.637913
      4 H                     0.650250
      5 F                    -0.347873
      6 Li                    0.033159
  ----------------------------------------
  Sum of atomic charges =     0.000000

 -----------------------------------------------------------------
                    Cartesian Multipole Moments
 -----------------------------------------------------------------
    Charge (ESU x 10^10)
                -0.0000
    Dipole Moment (Debye)
         X       0.0000      Y       0.0000      Z       1.9781
       Tot       1.9781
    Quadrupole Moments (Debye-Ang)
        XX     -20.2313     XY       0.0000     YY     -18.0387
        XZ       0.0000     YZ      -0.0000     ZZ     -19.9448
    Octopole Moments (Debye-Ang^2)
       XXX       0.0000    XXY      -0.0000    XYY       0.0000
       YYY      -0.0000    XXZ      -3.9911    XYZ      -0.0000
       YYZ       0.5369    XZZ       0.0000    YZZ      -0.0000
       ZZZ       8.5815
    Hexadecapole Moments (Debye-Ang^3)
      XXXX     -62.4699   XXXY      -0.0000   XXYY     -12.9665
      XYYY      -0.0000   YYYY     -16.9868   XXXZ       0.0000
      XXYZ      -0.0000   XYYZ      -0.0000   YYYZ      -0.0000
      XXZZ     -22.8802   XYZZ      -0.0000   YYZZ     -14.3791
      XZZZ       0.0000   YZZZ      -0.0000   ZZZZ     -72.1042
 -----------------------------------------------------------------
 Calculating analytic gradient of the SCF energy
 Gradient of SCF Energy
            1           2           3           4           5           6
    1   1.3438020   0.2996074  -0.0000000  -0.2996074  -1.3438020   0.0000000
    2   0.0000000  -0.0000000   0.0000000  -0.0000000  -0.0000000   0.0000000
    3  -0.5525057   0.3040927   1.5931690   0.3040927  -0.5525057  -1.0963430
 Max gradient component =       1.593E+00
 RMS gradient           =       6.801E-01
 Gradient time:  CPU 2.19 s  wall 2.19 s

     Step 5	:
        Energy is -305.0221141877
                            Maximum         Tolerance       Converged?
         Gradient           9.84393176e-01	3.00000000e-04	false
         Displacement       6.18188861e-01	1.20000000e-03	false
         Energy change      1.02597874e+00	1.00000000e-06	false


	OPTIMIZATION CYCLE:	6

 Scaling Magnitude of Eigenvalues
 	Minimum: -25.00000000	 Maximum: 25.00000000
 12 Hessian Eigenvalues to form next step
   0.10000000   0.10000000   0.10000000   0.22446853   0.22641767
   0.24782103   0.26860238   0.26990487   0.28621547   0.34264267
   0.41170829   0.84272260

 Minimum Search taking a RFO step
 Searching for Lambda that minimizes along all modes
	Value of Lambda   -0.81738396
	Norm  of Stepsize  0.72983169
	RMS   of Stepsize  0.21068426

	Performing Iterative Coordinate Back-Transformation

	  Starting from Previous Position

	  iter:	0	rms: 7.0214994637e-02	maxdev: 1.5057090543e-01
	  iter:	1	rms: 1.1213902783e-03	maxdev: 2.5859981888e-03
	  iter:	2	rms: 5.3326702694e-07	maxdev: 1.5198173651e-06	 Success!

	Finished Iterative Coordinate Back-Transformation
 ----------------------------------------------------------------
             Standard Nuclear Orientation (Bohr)
    I     Atom           X                Y                Z
 ----------------------------------------------------------------
    1      F      -1.4833108645    -0.0000000051     0.5890340088
    2      H      -1.7449326543    -0.0000000044    -0.9901598097
    3      F       0.0000000000    -0.0000000076    -1.7302239515
    4      H       1.7449326543     0.0000000446    -0.9901598097
    5      F       1.4833108645     0.0000000180     0.5890340088
    6      Li      0.0000000000    -0.0000000032     2.0533365910
 ----------------------------------------------------------------
 Molecular Point Group                 C2v   NOp =  4
 Largest Abelian Subgroup              C2v   NOp =  4
 Nuclear Repulsion Energy =         146.93905225 hartrees
 There are       16 alpha and       16 beta electrons

                       Distance Matrix (Bohrs)
             F (  1)   H (  2)   F (  3)   H (  4)   F (  5)
   H (  2)  1.600718
   F (  3)  2.753029  1.895385
   H (  4)  3.593802  3.489865  1.895385
   F (  5)  2.966622  3.593802  2.753029  1.600718
   Li(  6)  2.084321  3.508228  3.783561  3.508228  2.084321
 
 Requested basis set is 3-21++G
 There are 22 shells and 58 basis functions
 A cutoff of  1.0D-12 yielded    250 shell pairs
 There are      1780 function pairs
 Smallest overlap matrix eigenvalue = 2.32E-03
 Guess MOs from SCF MO coefficient file

 -----------------------------------------------------------------------
  General SCF calculation program by
  Eric Jon Sundstrom, Paul Horn, Yuezhi Mao, Dmitri Zuev, Alec White,
  David Stuck, Shaama M.S., Shane Yost, Joonho Lee, David Small,
  Daniel Levine, Susi Lehtola, Hugh Burton, Evgeny Epifanovsky,
  Bang C. Huynh
 -----------------------------------------------------------------------
 Exchange:     0.2000 Hartree-Fock + 0.0800 Slater + 0.7200 B88
 Correlation:  0.1900 VWN1RPA + 0.8100 LYP
 Using SG-1 standard quadrature grid
 A restricted SCF calculation will be
 performed using DIIS
 SCF converges when DIIS error is below 1.0e-08
 ---------------------------------------
  Cycle       Energy         DIIS error
 ---------------------------------------
    1    -305.6585827512      1.08e-02  
    2    -305.6878948587      1.78e-03  
    3    -305.6875108688      2.33e-03  
    4    -305.6887537821      9.28e-05  
    5    -305.6887543757      8.54e-05  
    6    -305.6887561072      4.58e-06  
    7    -305.6887561176      7.63e-07  
    8    -305.6887561178      5.14e-08  
    9    -305.6887561178      5.62e-09  Convergence criterion met
 ---------------------------------------
 SCF time:   CPU 1.32s  wall 1.00s 
 SCF   energy in the final basis set =     -305.6887561178
 Total energy in the final basis set =     -305.6887561178
 
 --------------------------------------------------------------
             Orbital Energies (a.u.) and Symmetries
 --------------------------------------------------------------
 
 Alpha MOs, Restricted
 -- Occupied --                  
-24.542 -24.541 -24.480  -2.077  -1.456  -1.271  -1.059  -0.747
  1 B1    1 A1    2 A1    3 A1    4 A1    2 B1    5 A1    3 B1                 
 -0.619  -0.576  -0.559  -0.434  -0.390  -0.361  -0.287  -0.232
  6 A1    1 B2    7 A1    1 A2    4 B1    2 B2    5 B1    8 A1                 
 -- Virtual --                   
 -0.029   0.005   0.005   0.006   0.016   0.041   0.046   0.047
  9 A1   10 A1    3 B2    6 B1   11 A1    4 B2   12 A1    7 B1                 
  0.064   0.073   0.153   0.201   0.244   0.251   0.261   0.265
  8 B1   13 A1   14 A1    5 B2   15 A1    2 A2    6 B2    9 B1                 
  0.267   0.290   0.311   0.327   0.355   0.365   0.439   0.471
 10 B1   16 A1   17 A1   11 B1   18 A1    7 B2   12 B1   19 A1                 
  0.501   0.541   0.842   1.309   1.440   1.800   1.905   2.091
 20 A1   13 B1   14 B1   21 A1   15 B1   22 A1    8 B2    3 A2                 
  2.150   2.162   2.167   2.283   2.315   2.332   2.613   3.573
 23 A1    9 B2   16 B1   24 A1   25 A1   17 B1   18 B1   26 A1                 
  4.060   4.065
 19 B1   27 A1                                                                 
 
 Beta MOs, Restricted
 -- Occupied --                  
-24.542 -24.541 -24.480  -2.077  -1.456  -1.271  -1.059  -0.747
  1 B1    1 A1    2 A1    3 A1    4 A1    2 B1    5 A1    3 B1                 
 -0.619  -0.576  -0.559  -0.434  -0.390  -0.361  -0.287  -0.232
  6 A1    1 B2    7 A1    1 A2    4 B1    2 B2    5 B1    8 A1                 
 -- Virtual --                   
 -0.029   0.005   0.005   0.006   0.016   0.041   0.046   0.047
  9 A1   10 A1    3 B2    6 B1   11 A1    4 B2   12 A1    7 B1                 
  0.064   0.073   0.153   0.201   0.244   0.251   0.261   0.265
  8 B1   13 A1   14 A1    5 B2   15 A1    2 A2    6 B2    9 B1                 
  0.267   0.290   0.311   0.327   0.355   0.365   0.439   0.471
 10 B1   16 A1   17 A1   11 B1   18 A1    7 B2   12 B1   19 A1                 
  0.501   0.541   0.842   1.309   1.440   1.800   1.905   2.091
 20 A1   13 B1   14 B1   21 A1   15 B1   22 A1    8 B2    3 A2                 
  2.150   2.162   2.167   2.283   2.315   2.332   2.613   3.573
 23 A1    9 B2   16 B1   24 A1   25 A1   17 B1   18 B1   26 A1                 
  4.060   4.065
 19 B1   27 A1                                                                 
 --------------------------------------------------------------
 
          Ground-State Mulliken Net Atomic Charges

     Atom                 Charge (a.u.)
  ----------------------------------------
      1 F                    -0.392731
      2 H                     0.643776
      3 F                    -0.686590
      4 H                     0.643776
      5 F                    -0.392731
      6 Li                    0.184500
  ----------------------------------------
  Sum of atomic charges =     0.000000

 -----------------------------------------------------------------
                    Cartesian Multipole Moments
 -----------------------------------------------------------------
    Charge (ESU x 10^10)
                 0.0000
    Dipole Moment (Debye)
         X      -0.0000      Y       0.0000      Z       2.5564
       Tot       2.5564
    Quadrupole Moments (Debye-Ang)
        XX     -19.8348     XY       0.0000     YY     -18.2172
        XZ      -0.0000     YZ      -0.0000     ZZ     -18.4260
    Octopole Moments (Debye-Ang^2)
       XXX      -0.0000    XXY       0.0000    XYY      -0.0000
       YYY      -0.0000    XXZ      -4.4396    XYZ      -0.0000
       YYZ       0.9725    XZZ      -0.0000    YZZ      -0.0000
       ZZZ      12.0210
    Hexadecapole Moments (Debye-Ang^3)
      XXXX     -66.2600   XXXY      -0.0000   XXYY     -13.6930
      XYYY      -0.0000   YYYY     -16.9728   XXXZ      -0.0000
      XXYZ      -0.0000   XYYZ       0.0000   YYYZ      -0.0000
      XXZZ     -22.9652   XYZZ      -0.0000   YYZZ     -14.6128
      XZZZ      -0.0000   YZZZ      -0.0000   ZZZZ     -70.7464
 -----------------------------------------------------------------
 Calculating analytic gradient of the SCF energy
 Gradient of SCF Energy
            1           2           3           4           5           6
    1   0.9174620   0.1648018  -0.0000000  -0.1648018  -0.9174620   0.0000000
    2   0.0000000  -0.0000000   0.0000000  -0.0000000  -0.0000000   0.0000000
    3  -0.2852041   0.1832891   1.0006014   0.1832891  -0.2852041  -0.7967715
 Max gradient component =       1.001E+00
 RMS gradient           =       4.474E-01
 Gradient time:  CPU 2.19 s  wall 2.19 s

     Step 6	:
        Energy is -305.6887561178
                            Maximum         Tolerance       Converged?
         Gradient           6.36724984e-01	3.00000000e-04	false
         Displacement       6.22259468e-01	1.20000000e-03	false
         Energy change      6.66641930e-01	1.00000000e-06	false


	OPTIMIZATION CYCLE:	7

 Scaling Magnitude of Eigenvalues
 	Minimum: -25.00000000	 Maximum: 25.00000000
 12 Hessian Eigenvalues to form next step
   0.10000000   0.10000000   0.10000000   0.22405274   0.22641767
   0.25156097   0.26990487   0.27099795   0.28621547   0.34264267
   0.45527185   0.55279710

 Minimum Search taking a RFO step
 Searching for Lambda that minimizes along all modes
	Value of Lambda   -0.53455547
	Norm  of Stepsize  0.71449301
	RMS   of Stepsize  0.20625637

	Performing Iterative Coordinate Back-Transformation

	  Starting from Previous Position

	  iter:	0	rms: 6.8738560477e-02	maxdev: 1.4323747994e-01
	  iter:	1	rms: 7.6396238375e-04	maxdev: 1.3346088378e-03
	  iter:	2	rms: 4.5999367013e-07	maxdev: 9.3574687316e-07	 Success!

	Finished Iterative Coordinate Back-Transformation
 ----------------------------------------------------------------
             Standard Nuclear Orientation (Bohr)
    I     Atom           X                Y                Z
 ----------------------------------------------------------------
    1      F      -1.6157885571    -0.0000000062     0.6151824620
    2      H      -1.8134070076    -0.0000000055    -1.0230046510
    3      F       0.0000000000    -0.0000000071    -1.8598759176
    4      H       1.8134070076     0.0000000453    -1.0230046510
    5      F       1.6157885571     0.0000000190     0.6151824620
    6      Li     -0.0000000000    -0.0000000032     2.1963813333
 ----------------------------------------------------------------
 Molecular Point Group                 C2v   NOp =  4
 Largest Abelian Subgroup              C2v   NOp =  4
 Nuclear Repulsion Energy =         136.97238470 hartrees
 There are       16 alpha and       16 beta electrons

                       Distance Matrix (Bohrs)
             F (  1)   H (  2)   F (  3)   H (  4)   F (  5)
   H (  2)  1.650064
   F (  3)  2.955789  1.997198
   H (  4)  3.800400  3.626814  1.997198
   F (  5)  3.231577  3.800400  2.955789  1.650064
   Li(  6)  2.260744  3.694982  4.056257  3.694982  2.260744
 
 Nucleus-field energy     =-1.0995826040e-10 hartrees
 Requested basis set is 3-21++G
 There are 22 shells and 58 basis functions
 A cutoff of  1.0D-12 yielded    250 shell pairs
 There are      1780 function pairs
 Smallest overlap matrix eigenvalue = 3.25E-03
 Guess MOs from SCF MO coefficient file

 -----------------------------------------------------------------------
  General SCF calculation program by
  Eric Jon Sundstrom, Paul Horn, Yuezhi Mao, Dmitri Zuev, Alec White,
  David Stuck, Shaama M.S., Shane Yost, Joonho Lee, David Small,
  Daniel Levine, Susi Lehtola, Hugh Burton, Evgeny Epifanovsky,
  Bang C. Huynh
 -----------------------------------------------------------------------
 Exchange:     0.2000 Hartree-Fock + 0.0800 Slater + 0.7200 B88
 Correlation:  0.1900 VWN1RPA + 0.8100 LYP
 Using SG-1 standard quadrature grid
 A restricted SCF calculation will be
 performed using DIIS
 SCF converges when DIIS error is below 1.0e-08
 ---------------------------------------
  Cycle       Energy         DIIS error
 ---------------------------------------
    1    -306.1066275950      7.73e-03  
    2    -306.1224741224      6.68e-04  
    3    -306.1224068778      9.77e-04  
    4    -306.1226385607      4.82e-05  
    5    -306.1226388875      4.20e-05  
    6    -306.1226392745      2.81e-06  
    7    -306.1226392776      2.83e-07  
    8    -306.1226392776      2.50e-08  
    9    -306.1226392776      1.93e-09  Convergence criterion met
 ---------------------------------------
 SCF time:   CPU 1.44s  wall 2.00s 
 SCF   energy in the final basis set =     -306.1226392776
 Total energy in the final basis set =     -306.1226392776
 
 --------------------------------------------------------------
             Orbital Energies (a.u.) and Symmetries
 --------------------------------------------------------------
 
 Alpha MOs, Restricted
 -- Occupied --                  
-24.547 -24.547 -24.476  -2.018  -1.378  -1.245  -1.070  -0.707
  1 B1    1 A1    2 A1    3 A1    4 A1    2 B1    5 A1    3 B1                 
 -0.572  -0.568  -0.528  -0.427  -0.396  -0.349  -0.309  -0.254
  6 A1    7 A1    1 B2    1 A2    4 B1    2 B2    5 B1    8 A1                 
 -- Virtual --                   
 -0.031   0.006   0.006   0.006   0.015   0.041   0.046   0.048
  9 A1    3 B2   10 A1    6 B1   11 A1    4 B2    7 B1   12 A1                 
  0.065   0.073   0.151   0.191   0.248   0.253   0.260   0.264
  8 B1   13 A1   14 A1    5 B2   15 A1    2 A2    9 B1    6 B2                 
  0.272   0.301   0.312   0.324   0.358   0.361   0.437   0.469
 10 B1   16 A1   17 A1   11 B1   18 A1    7 B2   12 B1   19 A1                 
  0.484   0.510   0.782   1.292   1.399   1.809   1.935   1.978
 20 A1   13 B1   14 B1   21 A1   15 B1   22 A1    8 B2   23 A1                 
  2.085   2.175   2.200   2.203   2.337   2.374   2.580   3.599
  3 A2    9 B2   16 B1   24 A1   17 B1   25 A1   18 B1   26 A1                 
  3.956   4.025
 19 B1   27 A1                                                                 
 
 Beta MOs, Restricted
 -- Occupied --                  
-24.547 -24.547 -24.476  -2.018  -1.378  -1.245  -1.070  -0.707
  1 B1    1 A1    2 A1    3 A1    4 A1    2 B1    5 A1    3 B1                 
 -0.572  -0.568  -0.528  -0.427  -0.396  -0.349  -0.309  -0.254
  6 A1    7 A1    1 B2    1 A2    4 B1    2 B2    5 B1    8 A1                 
 -- Virtual --                   
 -0.031   0.006   0.006   0.006   0.015   0.041   0.046   0.048
  9 A1    3 B2   10 A1    6 B1   11 A1    4 B2    7 B1   12 A1                 
  0.065   0.073   0.151   0.191   0.248   0.253   0.260   0.264
  8 B1   13 A1   14 A1    5 B2   15 A1    2 A2    9 B1    6 B2                 
  0.272   0.301   0.312   0.324   0.358   0.361   0.437   0.469
 10 B1   16 A1   17 A1   11 B1   18 A1    7 B2   12 B1   19 A1                 
  0.484   0.510   0.782   1.292   1.399   1.809   1.935   1.978
 20 A1   13 B1   14 B1   21 A1   15 B1   22 A1    8 B2   23 A1                 
  2.085   2.175   2.200   2.203   2.337   2.374   2.580   3.599
  3 A2    9 B2   16 B1   24 A1   17 B1   25 A1   18 B1   26 A1                 
  3.956   4.025
 19 B1   27 A1                                                                 
 --------------------------------------------------------------
 
          Ground-State Mulliken Net Atomic Charges

     Atom                 Charge (a.u.)
  ----------------------------------------
      1 F                    -0.438602
      2 H                     0.631274
      3 F                    -0.721125
      4 H                     0.631274
      5 F                    -0.438602
      6 Li                    0.335782
  ----------------------------------------
  Sum of atomic charges =     0.000000

 -----------------------------------------------------------------
                    Cartesian Multipole Moments
 -----------------------------------------------------------------
    Charge (ESU x 10^10)
                -0.0000
    Dipole Moment (Debye)
         X      -0.0000      Y       0.0000      Z       3.1011
       Tot       3.1011
    Quadrupole Moments (Debye-Ang)
        XX     -19.8424     XY       0.0000     YY     -18.4559
        XZ       0.0000     YZ      -0.0000     ZZ     -17.5351
    Octopole Moments (Debye-Ang^2)
       XXX      -0.0000    XXY       0.0000    XYY      -0.0000
       YYY      -0.0000    XXZ      -4.8199    XYZ      -0.0000
       YYZ       1.3297    XZZ       0.0000    YZZ      -0.0000
       ZZZ      15.2676
    Hexadecapole Moments (Debye-Ang^3)
      XXXX     -73.7494   XXXY      -0.0000   XXYY     -15.0208
      XYYY      -0.0000   YYYY     -17.4153   XXXZ       0.0000
      XXYZ      -0.0000   XYYZ      -0.0000   YYYZ      -0.0000
      XXZZ     -24.4650   XYZZ      -0.0000   YYZZ     -15.4193
      XZZZ      -0.0000   YZZZ      -0.0000   ZZZZ     -73.1086
 -----------------------------------------------------------------
 Calculating analytic gradient of the SCF energy
 Gradient of SCF Energy
            1           2           3           4           5           6
    1   0.5782467   0.0923851   0.0000000  -0.0923851  -0.5782467  -0.0000000
    2   0.0000000  -0.0000000   0.0000000  -0.0000000  -0.0000000   0.0000000
    3  -0.2442251   0.1484892   0.6758571   0.1484892  -0.2442251  -0.4843852
 Max gradient component =       6.759E-01
 RMS gradient           =       2.926E-01
 Gradient time:  CPU 2.67 s  wall 2.67 s

     Step 7	:
        Energy is -306.1226392776
                            Maximum         Tolerance       Converged?
         Gradient           4.15127488e-01	3.00000000e-04	false
         Displacement       5.87489880e-01	1.20000000e-03	false
         Energy change      4.33883160e-01	1.00000000e-06	false


[...]
         Energy change      6.33007630e-06	1.00000000e-06	false


	OPTIMIZATION CYCLE:	31

 Scaling Magnitude of Eigenvalues
 	Minimum: -25.00000000	 Maximum: 25.00000000
 12 Hessian Eigenvalues to form next step
   0.00570312   0.01941503   0.03452172   0.06420325   0.10000000
   0.10000000   0.10000000   0.22641767   0.22739914   0.26990487
   0.28621547   0.34264267

 Minimum Search taking a RFO step
 Searching for Lambda that minimizes along all modes
	Value of Lambda   -0.00000365
	Norm  of Stepsize  0.01492768
	RMS   of Stepsize  0.00430925

	Performing Iterative Coordinate Back-Transformation

	  Starting from Previous Position

	  iter:	0	rms: 1.7081657167e-03	maxdev: 4.0472572593e-03
	  iter:	1	rms: 7.4495603453e-07	maxdev: 1.7981097957e-06	 Success!

	Finished Iterative Coordinate Back-Transformation
 ----------------------------------------------------------------
             Standard Nuclear Orientation (Bohr)
    I     Atom           X                Y                Z
 ----------------------------------------------------------------
    1      F      -2.6671926541    -0.0000000216     0.8050827006
    2      H      -1.7635325594    -0.0000000103    -1.1354561137
    3      F       0.0000000000     0.0000000128    -2.6809211672
    4      H       1.7635325594     0.0000000259    -1.1354561137
    5      F       2.6671926541     0.0000000306     0.8050827006
    6      Li     -0.0000000000     0.0000000047     2.8625290312
 ----------------------------------------------------------------
 Molecular Point Group                 C2v   NOp =  4
 Largest Abelian Subgroup              C2v   NOp =  4
 Nuclear Repulsion Energy =          94.45651686 hartrees
 There are       16 alpha and       16 beta electrons

                       Distance Matrix (Bohrs)
             F (  1)   H (  2)   F (  3)   H (  4)   F (  5)
   H (  2)  2.140629
   F (  3)  4.389321  2.344890
   H (  4)  4.837046  3.527065  2.344890
   F (  5)  5.334385  4.837046  4.389321  2.140629
   Li(  6)  3.368531  4.369660  5.543450  4.369660  3.368531
 
 Nucleus-field energy     =-1.7627029624e-10 hartrees
 Requested basis set is 3-21++G
 There are 22 shells and 58 basis functions
 A cutoff of  1.0D-12 yielded    243 shell pairs
 There are      1755 function pairs
 Smallest overlap matrix eigenvalue = 8.22E-03
 Guess MOs from SCF MO coefficient file

 -----------------------------------------------------------------------
  General SCF calculation program by
  Eric Jon Sundstrom, Paul Horn, Yuezhi Mao, Dmitri Zuev, Alec White,
  David Stuck, Shaama M.S., Shane Yost, Joonho Lee, David Small,
  Daniel Levine, Susi Lehtola, Hugh Burton, Evgeny Epifanovsky,
  Bang C. Huynh
 -----------------------------------------------------------------------
 Exchange:     0.2000 Hartree-Fock + 0.0800 Slater + 0.7200 B88
 Correlation:  0.1900 VWN1RPA + 0.8100 LYP
 Using SG-1 standard quadrature grid
 A restricted SCF calculation will be
 performed using DIIS
 SCF converges when DIIS error is below 1.0e-08
 ---------------------------------------
  Cycle       Energy         DIIS error
 ---------------------------------------
    1    -306.8466718446      6.94e-05  
    2    -306.8466727842      4.07e-05  
    3    -306.8466728247      3.83e-05  
    4    -306.8466731848      1.07e-06  
    5    -306.8466731850      6.72e-07  
    6    -306.8466731851      2.09e-08  
    7    -306.8466731851      1.76e-09  Convergence criterion met
 ---------------------------------------
 SCF time:   CPU 1.01s  wall 1.00s 
 SCF   energy in the final basis set =     -306.8466731851
 Total energy in the final basis set =     -306.8466731851
 
 --------------------------------------------------------------
             Orbital Energies (a.u.) and Symmetries
 --------------------------------------------------------------
 
 Alpha MOs, Restricted
 -- Occupied --                  
-24.580 -24.580 -24.579  -2.015  -1.198  -1.168  -1.141  -0.566
  1 A1    1 B1    2 A1    3 A1    4 A1    2 B1    5 A1    3 B1                 
 -0.540  -0.441  -0.425  -0.420  -0.408  -0.402  -0.395  -0.391
  6 A1    7 A1    1 B2    4 B1    1 A2    5 B1    2 B2    8 A1                 
 -- Virtual --                   
 -0.049  -0.000   0.002   0.005   0.010   0.027   0.038   0.040
  9 A1    3 B2   10 A1    6 B1   11 A1    4 B2    7 B1   12 A1                 
  0.064   0.070   0.128   0.135   0.194   0.205   0.216   0.243
 13 A1    8 B1   14 A1    5 B2    9 B1   15 A1    6 B2   16 A1                 
  0.247   0.258   0.271   0.302   0.305   0.330   0.362   0.396
  2 A2   10 B1   17 A1   11 B1   18 A1    7 B2   12 B1   19 A1                 
  0.398   0.444   0.473   1.022   1.276   1.382   2.038   2.055
 13 B1   20 A1   14 B1   21 A1   22 A1   15 B1   16 B1    3 A2                 
  2.068   2.096   2.109   2.136   2.166   2.320   2.390   3.652
  8 B2    9 B2   17 B1   23 A1   24 A1   25 A1   18 B1   26 A1                 
  3.685   3.863
 19 B1   27 A1                                                                 
 
 Beta MOs, Restricted
 -- Occupied --                  
-24.580 -24.580 -24.579  -2.015  -1.198  -1.168  -1.141  -0.566
  1 A1    1 B1    2 A1    3 A1    4 A1    2 B1    5 A1    3 B1                 
 -0.540  -0.441  -0.425  -0.420  -0.408  -0.402  -0.395  -0.391
  6 A1    7 A1    1 B2    4 B1    1 A2    5 B1    2 B2    8 A1                 
 -- Virtual --                   
 -0.049  -0.000   0.002   0.005   0.010   0.027   0.038   0.040
  9 A1    3 B2   10 A1    6 B1   11 A1    4 B2    7 B1   12 A1                 
  0.064   0.070   0.128   0.135   0.194   0.205   0.216   0.243
 13 A1    8 B1   14 A1    5 B2    9 B1   15 A1    6 B2   16 A1                 
  0.247   0.258   0.271   0.302   0.305   0.330   0.362   0.396
  2 A2   10 B1   17 A1   11 B1   18 A1    7 B2   12 B1   19 A1                 
  0.398   0.444   0.473   1.022   1.276   1.382   2.038   2.055
 13 B1   20 A1   14 B1   21 A1   22 A1   15 B1   16 B1    3 A2                 
  2.068   2.096   2.109   2.136   2.166   2.320   2.390   3.652
  8 B2    9 B2   17 B1   23 A1   24 A1   25 A1   18 B1   26 A1                 
  3.685   3.863
 19 B1   27 A1                                                                 
 --------------------------------------------------------------
 
          Ground-State Mulliken Net Atomic Charges

     Atom                 Charge (a.u.)
  ----------------------------------------
      1 F                    -0.526495
      2 H                     0.453261
      3 F                    -0.546493
      4 H                     0.453261
      5 F                    -0.526495
      6 Li                    0.692961
  ----------------------------------------
  Sum of atomic charges =     0.000000

 -----------------------------------------------------------------
                    Cartesian Multipole Moments
 -----------------------------------------------------------------
    Charge (ESU x 10^10)
                 0.0000
    Dipole Moment (Debye)
         X      -0.0000      Y      -0.0000      Z       4.6595
       Tot       4.6595
    Quadrupole Moments (Debye-Ang)
        XX     -27.5866     XY      -0.0000     YY     -19.5256
        XZ      -0.0000     YZ       0.0000     ZZ     -14.1914
    Octopole Moments (Debye-Ang^2)
       XXX      -0.0000    XXY      -0.0000    XYY      -0.0000
       YYY      -0.0000    XXZ      -6.7071    XYZ      -0.0000
       YYZ       2.3470    XZZ      -0.0000    YZZ      -0.0000
       ZZZ      30.3493
    Hexadecapole Moments (Debye-Ang^3)
      XXXX    -185.0175   XXXY      -0.0000   XXYY     -30.6764
      XYYY      -0.0000   YYYY     -18.5299   XXXZ       0.0000
      XXYZ       0.0000   XYYZ       0.0000   YYYZ       0.0000
      XXZZ     -45.6696   XYZZ      -0.0000   YYZZ     -22.1573
      XZZZ       0.0000   YZZZ       0.0000   ZZZZ     -99.0637
 -----------------------------------------------------------------
 Calculating analytic gradient of the SCF energy
 Gradient of SCF Energy
            1           2           3           4           5           6
    1   0.0001176  -0.0001430   0.0000000   0.0001430  -0.0001176  -0.0000000
    2   0.0000000  -0.0000000   0.0000000  -0.0000000  -0.0000000   0.0000000
    3  -0.0001353   0.0000888   0.0000803   0.0000888  -0.0001353   0.0000126
 Max gradient component =       1.430E-04
 RMS gradient           =       8.419E-05
 Gradient time:  CPU 2.09 s  wall 2.09 s

     Step 31	:
        Energy is -306.8466731851
                            Maximum         Tolerance       Converged?
         Gradient           2.03490094e-04	3.00000000e-04	true
         Displacement       1.30251771e-02	1.20000000e-03	false
         Energy change      2.22498966e-06	1.00000000e-06	false


	OPTIMIZATION CYCLE:	32

 Scaling Magnitude of Eigenvalues
 	Minimum: -25.00000000	 Maximum: 25.00000000
 12 Hessian Eigenvalues to form next step
   0.00622712   0.02003492   0.03138093   0.06380527   0.10000000
   0.10000000   0.10000000   0.17438809   0.22641767   0.26990487
   0.28621547   0.34264267

 Minimum Search taking a RFO step
 Searching for Lambda that minimizes along all modes
	Value of Lambda   -0.00000047
	Norm  of Stepsize  0.00289979
	RMS   of Stepsize  0.00083710

	Performing Iterative Coordinate Back-Transformation

	  Starting from Previous Position

	  iter:	0	rms: 3.4945391400e-04	maxdev: 8.5761508291e-04
	  iter:	1	rms: 9.3454449567e-08	maxdev: 2.1533448561e-07	 Success!

	Finished Iterative Coordinate Back-Transformation
 ----------------------------------------------------------------
             Standard Nuclear Orientation (Bohr)
    I     Atom           X                Y                Z
 ----------------------------------------------------------------
    1      F      -2.6676780050    -0.0000000216     0.8053713412
    2      H      -1.7626747290    -0.0000000102    -1.1355742199
    3      F       0.0000000000     0.0000000128    -2.6810498353
    4      H       1.7626747290     0.0000000259    -1.1355742199
    5      F       2.6676780050     0.0000000306     0.8053713412
    6      Li     -0.0000000000     0.0000000047     2.8623166305
 ----------------------------------------------------------------
 Molecular Point Group                 C2v   NOp =  4
 Largest Abelian Subgroup              C2v   NOp =  4
 Nuclear Repulsion Energy =          94.44701417 hartrees
 There are       16 alpha and       16 beta electrons

                       Distance Matrix (Bohrs)
             F (  1)   H (  2)   F (  3)   H (  4)   F (  5)
   H (  2)  2.141565
   F (  3)  4.389947  2.344252
   H (  4)  4.836868  3.525349  2.344252
   F (  5)  5.335356  4.836868  4.389947  2.141565
   Li(  6)  3.368609  4.369228  5.543366  4.369228  3.368609
 
 Nucleus-field energy     =-1.7626413378e-10 hartrees
 Requested basis set is 3-21++G
 There are 22 shells and 58 basis functions
 A cutoff of  1.0D-12 yielded    243 shell pairs
 There are      1755 function pairs
 Smallest overlap matrix eigenvalue = 8.22E-03
 Guess MOs from SCF MO coefficient file

 -----------------------------------------------------------------------
  General SCF calculation program by
  Eric Jon Sundstrom, Paul Horn, Yuezhi Mao, Dmitri Zuev, Alec White,
  David Stuck, Shaama M.S., Shane Yost, Joonho Lee, David Small,
  Daniel Levine, Susi Lehtola, Hugh Burton, Evgeny Epifanovsky,
  Bang C. Huynh
 -----------------------------------------------------------------------
 Exchange:     0.2000 Hartree-Fock + 0.0800 Slater + 0.7200 B88
 Correlation:  0.1900 VWN1RPA + 0.8100 LYP
 Using SG-1 standard quadrature grid
 A restricted SCF calculation will be
 performed using DIIS
 SCF converges when DIIS error is below 1.0e-08
 ---------------------------------------
  Cycle       Energy         DIIS error
 ---------------------------------------
    1    -306.8466732683      2.04e-05  
    2    -306.8466733939      1.56e-05  
    3    -306.8466734269      1.00e-05  
    4    -306.8466734520      6.37e-07  
    5    -306.8466734521      2.27e-07  
    6    -306.8466734521      1.66e-08  
    7    -306.8466734521      7.88e-10  Convergence criterion met
 ---------------------------------------
 SCF time:   CPU 0.99s  wall 1.00s 
 SCF   energy in the final basis set =     -306.8466734521
 Total energy in the final basis set =     -306.8466734521
 
 --------------------------------------------------------------
             Orbital Energies (a.u.) and Symmetries
 --------------------------------------------------------------
 
 Alpha MOs, Restricted
 -- Occupied --                  
-24.580 -24.580 -24.579  -2.015  -1.198  -1.168  -1.141  -0.566
  1 A1    1 B1    2 A1    3 A1    4 A1    2 B1    5 A1    3 B1                 
 -0.540  -0.441  -0.425  -0.420  -0.408  -0.402  -0.395  -0.391
  6 A1    7 A1    1 B2    4 B1    1 A2    5 B1    2 B2    8 A1                 
 -- Virtual --                   
 -0.049  -0.000   0.002   0.005   0.010   0.027   0.038   0.040
  9 A1    3 B2   10 A1    6 B1   11 A1    4 B2    7 B1   12 A1                 
  0.064   0.070   0.128   0.135   0.194   0.205   0.216   0.243
 13 A1    8 B1   14 A1    5 B2    9 B1   15 A1    6 B2   16 A1                 
  0.247   0.258   0.271   0.302   0.305   0.330   0.362   0.396
  2 A2   10 B1   17 A1   11 B1   18 A1    7 B2   12 B1   19 A1                 
  0.398   0.443   0.473   1.022   1.276   1.382   2.039   2.055
 13 B1   20 A1   14 B1   21 A1   22 A1   15 B1   16 B1    3 A2                 
  2.068   2.096   2.109   2.136   2.166   2.320   2.390   3.652
  8 B2    9 B2   17 B1   23 A1   24 A1   25 A1   18 B1   26 A1                 
  3.685   3.863
 19 B1   27 A1                                                                 
 
 Beta MOs, Restricted
 -- Occupied --                  
-24.580 -24.580 -24.579  -2.015  -1.198  -1.168  -1.141  -0.566
  1 A1    1 B1    2 A1    3 A1    4 A1    2 B1    5 A1    3 B1                 
 -0.540  -0.441  -0.425  -0.420  -0.408  -0.402  -0.395  -0.391
  6 A1    7 A1    1 B2    4 B1    1 A2    5 B1    2 B2    8 A1                 
 -- Virtual --                   
 -0.049  -0.000   0.002   0.005   0.010   0.027   0.038   0.040
  9 A1    3 B2   10 A1    6 B1   11 A1    4 B2    7 B1   12 A1                 
  0.064   0.070   0.128   0.135   0.194   0.205   0.216   0.243
 13 A1    8 B1   14 A1    5 B2    9 B1   15 A1    6 B2   16 A1                 
  0.247   0.258   0.271   0.302   0.305   0.330   0.362   0.396
  2 A2   10 B1   17 A1   11 B1   18 A1    7 B2   12 B1   19 A1                 
  0.398   0.443   0.473   1.022   1.276   1.382   2.039   2.055
 13 B1   20 A1   14 B1   21 A1   22 A1   15 B1   16 B1    3 A2                 
  2.068   2.096   2.109   2.136   2.166   2.320   2.390   3.652
  8 B2    9 B2   17 B1   23 A1   24 A1   25 A1   18 B1   26 A1                 
  3.685   3.863
 19 B1   27 A1                                                                 
 --------------------------------------------------------------
 
          Ground-State Mulliken Net Atomic Charges

     Atom                 Charge (a.u.)
  ----------------------------------------
      1 F                    -0.526488
      2 H                     0.453035
      3 F                    -0.545884
      4 H                     0.453035
      5 F                    -0.526488
      6 Li                    0.692789
  ----------------------------------------
  Sum of atomic charges =     0.000000

 -----------------------------------------------------------------
                    Cartesian Multipole Moments
 -----------------------------------------------------------------
    Charge (ESU x 10^10)
                -0.0000
    Dipole Moment (Debye)
         X      -0.0000      Y      -0.0000      Z       4.6550
       Tot       4.6550
    Quadrupole Moments (Debye-Ang)
        XX     -27.5972     XY      -0.0000     YY     -19.5259
        XZ      -0.0000     YZ       0.0000     ZZ     -14.1906
    Octopole Moments (Debye-Ang^2)
       XXX      -0.0000    XXY      -0.0000    XYY      -0.0000
       YYY      -0.0000    XXZ      -6.7110    XYZ      -0.0000
       YYZ       2.3434    XZZ      -0.0000    YZZ      -0.0000
       ZZZ      30.3280
    Hexadecapole Moments (Debye-Ang^3)
      XXXX    -185.0999   XXXY      -0.0000   XXYY     -30.6866
      XYYY      -0.0000   YYYY     -18.5306   XXXZ       0.0000
      XXYZ       0.0000   XYYZ       0.0000   YYYZ       0.0000
      XXZZ     -45.6830   XYZZ      -0.0000   YYZZ     -22.1578
      XZZZ       0.0000   YZZZ       0.0000   ZZZZ     -99.0647
 -----------------------------------------------------------------
 Calculating analytic gradient of the SCF energy
 Gradient of SCF Energy
            1           2           3           4           5           6
    1   0.0000089  -0.0000245   0.0000000   0.0000245  -0.0000089  -0.0000000
    2   0.0000000  -0.0000000   0.0000000  -0.0000000  -0.0000000   0.0000000
    3  -0.0000142   0.0000028   0.0000228   0.0000028  -0.0000142   0.0000000
 Max gradient component =       2.447E-05
 RMS gradient           =       1.129E-05
 Gradient time:  CPU 2.08 s  wall 2.08 s

     Step 32	:
        Energy is -306.8466734521
                            Maximum         Tolerance       Converged?
         Gradient           2.31085973e-05	3.00000000e-04	true
         Displacement       2.21888464e-03	1.20000000e-03	false
         Energy change      2.67004395e-07	1.00000000e-06	true

	 Optimization Converged in 32 cycles

 *****************************************************
             End of BFGS Algorithm
 *****************************************************
		----------------------------------
		   Verification of Optimization
		----------------------------------

 Eigenvalues of Hessian in Optimization Verification
   0.00632963   0.01916647   0.02943343   0.06329830   0.10000000
   0.10000000   0.10000000   0.16722515   0.22641767   0.26990487
   0.28621547   0.34264267

 Found a minimum
		---------------------------------
		       End of Verification
		---------------------------------

 Final energy is -306.846673452123

	******************************
	**  OPTIMIZATION CONVERGED  **
	******************************
 ----------------------------------------------------------------
             Standard Nuclear Orientation (Bohr)
    I     Atom           X                Y                Z
 ----------------------------------------------------------------
    1      F      -2.6676780050    -0.0000000216     0.8053713412
    2      H      -1.7626747290    -0.0000000102    -1.1355742199
    3      F       0.0000000000     0.0000000128    -2.6810498353
    4      H       1.7626747290     0.0000000259    -1.1355742199
    5      F       2.6676780050     0.0000000306     0.8053713412
    6      Li     -0.0000000000     0.0000000047     2.8623166305
 ----------------------------------------------------------------
 Molecular Point Group                 C2v   NOp =  4
 Largest Abelian Subgroup              C2v   NOp =  4
 Nuclear Repulsion Energy =          94.44701417 hartrees
 There are       16 alpha and       16 beta electrons

Z-matrix Print:
$molecule
0 1
F 
H  1 2.344252
F  2 2.141565 1 156.241787
H  1 2.344252 2 97.512813 3 -0.000000 0
F  4 2.141565 1 156.241787 2 0.000000 0
Li 3 3.368609 2 102.636260 1 -0.000000 0
$end

 -----------------------------------------------------------------------
                  END OF GEOMETRY OPTIMIZER USING LIBOPT3               
 -----------------------------------------------------------------------
 Total job time:  117.75s(wall), 117.53s(cpu) 
 Tue Jul  4 16:13:42 2023

        *************************************************************
        *                                                           *
        *  Thank you very much for using Q-Chem.  Have a nice day.  *
        *                                                           *
        *************************************************************


