                  Welcome to Q-Chem
     A Quantum Leap Into The Future Of Chemistry


 Q-Chem 6.0 (devel), Q-Chem, Inc., Pleasanton, CA (2022)

 E. Epifanovsky,  A. T. B. Gilbert,  Xintian Feng,  Joonho Lee,  Yuezhi Mao,  
 N. Mardirossian,  P. Pokhilko,  A. White,  M. Wormit,  M. P. Coons,  
 A. L. Dempwolff,  Zhengting Gan,  D. Hait,  P. R. Horn,  L. D. Jacobson,  
 I. Kaliman,  J. Kussmann,  A. W. Lange,  Ka Un Lao,  D. S. Levine,  Jie Liu,  
 S. C. McKenzie,  A. F. Morrison,  K. Nanda,  F. Plasser,  D. R. Rehn,  
 M. L. Vidal,  Zhi-Qiang You,  Ying Zhu,  B. Alam,  B. Albrecht,  
 A. Aldossary,  E. Alguire,  J. H. Andersen,  V. Athavale,  D. Barton,  
 K. Begam,  A. Behn,  N. Bellonzi,  Y. A. Bernard,  E. J. Berquist,  
 H. Burton,  A. Carreras,  K. Carter-Fenk,  Romit Chakraborty,  
 Chandrima Chakravarty,  Junhan Chen,  A. D. Chien,  K. D. Closser,  
 V. Cofer-Shabica,  L. Cunha,  S. Dasgupta,  Jia Deng,  M. de Wergifosse,  
 M. Diedenhofen,  Hainam Do,  S. Ehlert,  Po-Tung Fang,  S. Fatehi,  
 Qingguo Feng,  T. Friedhoff,  B. Ganoe,  J. Gayvert,  Qinghui Ge,  
 G. Gidofalvi,  M. Goldey,  J. Gomes,  C. Gonzalez-Espinoza,  S. Gulania,  
 A. Gunina,  J. A. Gyamfi,  M. W. D. Hanson-Heine,  P. H. P. Harbach,  
 A. W. Hauser,  M. F. Herbst,  M. Hernandez Vera,  M. Hodecker,  
 Z. C. Holden,  S. Houck,  Xunkun Huang,  Kerwin Hui,  B. C. Huynh,  
 K. Ikeda,  M. Ivanov,  Hyunjun Ji,  Zuxin Jin,  Hanjie Jiang,  B. Kaduk,  
 S. Kaehler,  R. Kang,  K. Khistyaev,  Jaehoon Kim,  Yongbin Kim,  
 P. Klunzinger,  Z. Koczor-Benda,  Joong Hoon Koh,  D. Kosenkov,  
 Saikiran Kotaru,  L. Koulias,  T. Kowalczyk,  C. M. Krauter,  K. Kue,  
 A. Kunitsa,  T. Kus,  A. Landau,  K. V. Lawler,  D. Lefrancois,  S. Lehtola,  
 Rain Li,  Shaozhi Li,  Yi-Pei Li,  Jiashu Liang,  M. Liebenthal,  
 Hung-Hsuan Lin,  You-Sheng Lin,  Fenglai Liu,  Kuan-Yu Liu,  
 M. Loipersberger,  A. Luenser,  C. Malbon,  A. Manjanath,  P. Manohar,  
 E. Mansoor,  S. F. Manzer,  Shan-Ping Mao,  A. V. Marenich,  T. Markovich,  
 S. Mason,  F. Matz,  S. A. Maurer,  P. F. McLaughlin,  M. F. S. J. Menger,  
 J.-M. Mewes,  S. A. Mewes,  P. Morgante,  Mohammad Mostafanejad,  
 J. W. Mullinax,  K. J. Oosterbaan,  G. Paran,  V. Parravicini,  
 Alexander C. Paul,  Suranjan K. Paul,  F. Pavosevic,  Zheng Pei,  S. Prager,  
 E. I. Proynov,  E. Ramos,  B. Rana,  A. E. Rask,  A. Rettig,  R. M. Richard,  
 F. Rob,  E. Rossomme,  T. Scheele,  M. Scheurer,  M. Schneider,  
 P. E. Schneider,  N. Sergueev,  S. M. Sharada,  Hengyuan Shen,  
 W. Skomorowski,  D. W. Small,  C. J. Stein,  Yingli Su,  Yu-Chuan Su,  
 E. J. Sundstrom,  Zhen Tao,  J. Thirman,  Hung-Yi Tsai,  T. Tsuchimochi,  
 N. M. Tubman,  C. Utku,  S. P. Veccham,  O. Vydrov,  J. Wenzel,  
 Jonathan Wong,  J. Witte,  A. Yamada,  Chou-Hsun Yang,  Kun Yao,  
 S. Yeganeh,  S. R. Yost,  A. Zech,  F. Zeller,  Igor Ying Zhang,  
 Xing Zhang,  Yu Zhang,  D. Zuev,  A. Aspuru-Guzik,  A. T. Bell,  
 N. A. Besley,  K. B. Bravaya,  B. R. Brooks,  D. Casanova,  Jeng-Da Chai,  
 Hsing-Ta Chen,  S. Coriani,  C. J. Cramer,  A. E. DePrince, III,  
 R. A. DiStasio Jr.,  A. Dreuw,  B. D. Dunietz,  T. R. Furlani,  
 W. A. Goddard III,  S. Grimme,  S. Hammes-Schiffer,  T. Head-Gordon,  
 W. J. Hehre,  Chao-Ping Hsu,  T.-C. Jagau,  Yousung Jung,  A. Klamt,  
 Jing Kong,  D. S. Lambrecht,  Xiangyuan Li,  WanZhen Liang,  N. J. Mayhall,  
 C. W. McCurdy,  J. B. Neaton,  T. Neudecker,  C. Ochsenfeld,  
 J. A. Parkhill,  R. Peverati,  V. A. Rassolov,  Haisheng Ren,  Yihan Shao,  
 L. V. Slipchenko,  R. P. Steele,  J. E. Subotnik,  A. J. W. Thom,  
 A. Tkatchenko,  D. G. Truhlar,  T. Van Voorhis,  Fan Wang,  
 T. A. Wesolowski,  K. B. Whaley,  H. L. Woodcock III,  P. M. Zimmerman,  
 S. Faraji,  P. M. W. Gill,  M. Head-Gordon,  J. M. Herbert,  A. I. Krylov

 Contributors to earlier versions of Q-Chem not listed above: 
 R. D. Adamson,  B. Austin,  R. Baer,  J. Baker,  G. J. O. Beran,  
 K. Brandhorst,  S. T. Brown,  E. F. C. Byrd,  Arup K. Chakraborty,  
 G. K. L. Chan,  Chun-Min Chang,  Yunqing Chen,  C.-L. Cheng,  
 Siu Hung Chien,  D. M. Chipman,  D. L. Crittenden,  H. Dachsel,  
 R. J. Doerksen,  A. D. Dutoi,  R. G. Edgar,  J. Fosso-Tande,  
 L. Fusti-Molnar,  D. Ghosh,  A. Ghysels,  A. Golubeva-Zadorozhnaya,  
 J. Gonthier,  M. S. Gordon,  S. R. Gwaltney,  G. Hawkins,  J. E. Herr,  
 A. Heyden,  S. Hirata,  E. G. Hohenstein,  G. Kedziora,  F. J. Keil,  
 C. Kelley,  Jihan Kim,  R. A. King,  R. Z. Khaliullin,  P. P. Korambath,  
 W. Kurlancheek,  A. Laurent,  A. M. Lee,  M. S. Lee,  S. V. Levchenko,  
 Ching Yeh Lin,  D. Liotard,  E. Livshits,  R. C. Lochan,  I. Lotan,  
 L. A. Martinez-Martinez,  P. E. Maslen,  N. Nair,  D. P. O'Neill,  
 D. Neuhauser,  E. Neuscamman,  C. M. Oana,  R. Olivares-Amaya,  R. Olson,  
 T. M. Perrine,  B. Peters,  P. A. Pieniazek,  A. Prociuk,  Y. M. Rhee,  
 J. Ritchie,  M. A. Rohrdanz,  E. Rosta,  N. J. Russ,  H. F. Schaefer III,  
 M. W. Schmidt,  N. E. Schultz,  S. Sharma,  N. Shenvi,  C. D. Sherrill,  
 A. C. Simmonett,  A. Sodt,  T. Stein,  D. Stuck,  K. S. Thanthiriwatte,  
 V. Vanovschi,  L. Vogt,  Tao Wang,  A. Warshel,  M. A. Watson,  
 C. F. Williams,  Q. Wu,  X. Xu,  Jun Yang,  W. Zhang,  Yan Zhao

   Please cite Q-Chem as follows:
  "Software for the frontiers of quantum chemistry:
   An overview of developments in the Q-Chem 5 package"
   J. Chem. Phys. 155, 084801 (2021)
   https://doi.org/10.1063/5.0055522 (open access)

 Q-Chem 6.0.2 for Intel X86 EM64T Linux

 Parts of Q-Chem use Armadillo 9.900.5 (Nocturnal Misbehaviour).
 http://arma.sourceforge.net/

 Q-Chem begins on Tue Jul  4 16:11:07 2023  

 Host: 
0

     Scratch files written to /lscratch/ccprak16/base_527/qchem30327//
 Processing $rem in /opt/software/Q-Chem/intel/mkl/6.0.2/generic/config/preferences:
 Processing $rem in /export/home/ccprak16/.qchemrc:

 Checking the input file for inconsistencies... 	...done.

--------------------------------------------------------------
User input:
--------------------------------------------------------------
$molecule
0 1
  O    0.6889327    0.0000000    0.7113184
  F   -0.0000000    0.0000000    1.8397001
  H    0.0000000    0.0000000    0.0000000
$end

$rem
jobtype opt
method blyp
basis 6-31g
input_bohr true
threads 1
mem_total 10000
!QSYS wt=01:00:00
$end

--------------------------------------------------------------
 ----------------------------------------------------------------
             Standard Nuclear Orientation (Bohr)
    I     Atom           X                Y                Z
 ----------------------------------------------------------------
    1      O       0.6369645218     0.1266820007     0.0000000000
    2      F      -0.6764922540    -0.0239992001     0.0000000000
    3      H       0.9927141119    -0.7974632046    -0.0000000000
 ----------------------------------------------------------------
 Molecular Point Group                 Cs    NOp =  2
 Largest Abelian Subgroup              Cs    NOp =  2
 Nuclear Repulsion Energy =          67.43082267 hartrees
 There are        9 alpha and        9 beta electrons
 Requested basis set is 6-31G
 There are 8 shells and 20 basis functions

 Total QAlloc Memory Limit  10000 MB
 Mega-Array Size       188 MB
 MEM_STATIC part       192 MB

 -----------------------------------------------------------------------
                STARTING GEOMETRY OPTIMIZER USING LIBOPT3
                by Peter F. McLaughlin, Yu Zhang, Evgeny Epifanovsky
 -----------------------------------------------------------------------

              Initial Energy and Gradient Calculation
   -- Checking Topology for Ill-Behaving Coordinates --

 -------------------------------------------
   Coordinate       |  Removed | Additions 
 -------------------------------------------
	Bonds                     0          0
	Angles                    0          0
	Torsions                  0          0
	Co-Linear Type5s          0          0
	Co-Linear Type6s          0          0
 -------------------------------------------
     Done Checking Topology
 ----------------------------------------------------------------
             Standard Nuclear Orientation (Bohr)
    I     Atom           X                Y                Z
 ----------------------------------------------------------------
    1      O       0.6369645218     0.1266820007    -0.0000000000
    2      F      -0.6764922540    -0.0239992001     0.0000000000
    3      H       0.9927141119    -0.7974632046     0.0000000000
 ----------------------------------------------------------------
 Molecular Point Group                 Cs    NOp =  2
 Largest Abelian Subgroup              Cs    NOp =  2
 Nuclear Repulsion Energy =          67.43082267 hartrees
 There are        9 alpha and        9 beta electrons

                       Distance Matrix (Bohrs)
             O (  1)   F (  2)
   F (  2)  1.322072
   H (  3)  0.990254  1.839700
 
 Requested basis set is 6-31G
 There are 8 shells and 20 basis functions
 A cutoff of  1.0D-12 yielded     36 shell pairs
 There are       234 function pairs
 Smallest overlap matrix eigenvalue = 4.43E-03

 Scale SEOQF with 1.000000e+00/1.000000e+00/1.000000e+00

 Standard Electronic Orientation quadrupole field applied
 Nucleus-field energy     =     0.0000000010 hartrees
 Guess from superposition of atomic densities
 Warning:  Energy on first SCF cycle will be non-variational
 SAD guess density has 18.000000 electrons

 -----------------------------------------------------------------------
  General SCF calculation program by
  Eric Jon Sundstrom, Paul Horn, Yuezhi Mao, Dmitri Zuev, Alec White,
  David Stuck, Shaama M.S., Shane Yost, Joonho Lee, David Small,
  Daniel Levine, Susi Lehtola, Hugh Burton, Evgeny Epifanovsky,
  Bang C. Huynh
 -----------------------------------------------------------------------
 Exchange:  B88      Correlation:  LYP
 Using SG-1 standard quadrature grid
 A restricted SCF calculation will be
 performed using DIIS
 SCF converges when DIIS error is below 1.0e-08
 ---------------------------------------
  Cycle       Energy         DIIS error
 ---------------------------------------
    1    -177.5123108841      7.86e-01  
    2    -172.1523246163      7.43e-02  
    3    -171.2279764047      1.39e-01  
    4    -172.3250050627      2.35e-02  
    5    -172.3394338976      8.78e-03  
    6    -172.3421138338      1.58e-03  
    7    -172.3421910411      1.66e-04  
    8    -172.3421920005      1.61e-06  
    9    -172.3421920006      1.92e-07  
   10    -172.3421920006      1.25e-08  
   11    -172.3421920006      1.44e-09  Convergence criterion met
 ---------------------------------------
 SCF time:   CPU 0.47s  wall 0.00s 
 SCF   energy in the final basis set =     -172.3421920006
 Total energy in the final basis set =     -172.3421920006
 
 --------------------------------------------------------------
             Orbital Energies (a.u.) and Symmetries
 --------------------------------------------------------------
 
 Alpha MOs, Restricted
 -- Occupied --                  
-24.413 -18.999  -2.086  -1.121  -0.890  -0.685  -0.647  -0.062
  1 A'    2 A'    3 A'    4 A'    1 A"    5 A'    6 A'    7 A'                 
  0.050
  2 A"                                                                         
 -- Virtual --                   
  0.111   0.456   0.645   0.660   0.923   1.134   1.192   1.267
  8 A'    9 A'    3 A"   10 A'   11 A'   12 A'    4 A"   13 A'                 
  1.862   2.150   2.668
 14 A'   15 A'   16 A'                                                         
 
 Beta MOs, Restricted
 -- Occupied --                  
-24.413 -18.999  -2.086  -1.121  -0.890  -0.685  -0.647  -0.062
  1 A'    2 A'    3 A'    4 A'    1 A"    5 A'    6 A'    7 A'                 
  0.050
  2 A"                                                                         
 -- Virtual --                   
  0.111   0.456   0.645   0.660   0.923   1.134   1.192   1.267
  8 A'    9 A'    3 A"   10 A'   11 A'   12 A'    4 A"   13 A'                 
  1.862   2.150   2.668
 14 A'   15 A'   16 A'                                                         
 --------------------------------------------------------------
 
          Ground-State Mulliken Net Atomic Charges

     Atom                 Charge (a.u.)
  ----------------------------------------
      1 O                    -0.048100
      2 F                     0.108543
      3 H                    -0.060442
  ----------------------------------------
  Sum of atomic charges =     0.000000

 -----------------------------------------------------------------
                    Cartesian Multipole Moments
 -----------------------------------------------------------------
    Charge (ESU x 10^10)
                -0.0000
    Dipole Moment (Debye)
         X      -0.3864      Y      -1.8137      Z       0.0000
       Tot       1.8544
    Quadrupole Moments (Debye-Ang)
        XX     -11.0029     XY      -1.4010     YY      -8.7215
        XZ       0.0000     YZ      -0.0000     ZZ      -9.5201
    Octopole Moments (Debye-Ang^2)
       XXX      -1.3254    XXY      -1.0639    XYY      -0.5696
       YYY      -1.3538    XXZ       0.0000    XYZ       0.0000
       YYZ       0.0000    XZZ      -1.0765    YZZ      -0.5223
       ZZZ       0.0000
    Hexadecapole Moments (Debye-Ang^3)
      XXXX     -13.7692   XXXY      -1.0206   XXYY      -3.5188
      XYYY      -1.0631   YYYY      -5.4729   XXXZ       0.0000
      XXYZ      -0.0000   XYYZ       0.0000   YYYZ      -0.0000
      XXZZ      -3.8497   XYZZ      -0.4004   YYZZ      -1.9217
      XZZZ       0.0000   YZZZ      -0.0000   ZZZZ      -5.9679
 -----------------------------------------------------------------
 Calculating analytic gradient of the SCF energy
 Gradient of SCF Energy
            1           2           3
    1  -6.6392185   8.0308470  -1.3916285
    2  -3.1197803   0.6189486   2.5008317
    3   0.0000000  -0.0000000  -0.0000000
 Max gradient component =       8.031E+00
 RMS gradient           =       3.755E+00
 Gradient time:  CPU 0.27 s  wall 0.27 s

 *****************************************************
             Starting BFGS Algorithm
 *****************************************************
            LIBOPT3 RUN PARAMETERS

  Geometry Optimization Coordinates :
	Delocalized Natural Internal Coordinates

  Step Length Selection Method :
	Eigenvector Following Algorithm

  Convergence Criteria :
	Max Gradient Component    	3.00000000e-04
	Max Displacement Component	1.20000000e-03
	Absolute Energy Difference	1.00000000e-06

  Initial Hessian :
	Approximate Hessian - Simple Internal Coordinate Scaled

  Type of Verification :
	Verify with final updated Hessian
 *****************************************************

	OPTIMIZATION CYCLE:	1

 Scaling Magnitude of Eigenvalues
 	Minimum: -25.00000000	 Maximum: 25.00000000
 3 Hessian Eigenvalues to form next step
   0.23657351   0.40848990   0.50000000


 Minimum Search taking a RFO step
 Searching for Lambda that minimizes along all modes
	Value of Lambda   -5.91339165
	Norm  of Stepsize  0.51961524
	RMS   of Stepsize  0.30000000

	Performing Iterative Coordinate Back-Transformation

	  Starting from Previous Position

	  iter:	0	rms: 9.6661721452e-02	maxdev: 2.2298374781e-01
	  iter:	1	rms: 2.4223578508e-03	maxdev: 4.8445441384e-03
	  iter:	2	rms: 7.8324238938e-06	maxdev: 1.5243380016e-05
	  iter:	3	rms: 9.0823124835e-11	maxdev: 1.8915015876e-10	 Success!

	Finished Iterative Coordinate Back-Transformation
 ----------------------------------------------------------------
             Standard Nuclear Orientation (Bohr)
    I     Atom           X                Y                Z
 ----------------------------------------------------------------
    1      O       0.7888183005     0.1791036411     0.0000000000
    2      F      -0.9003015964    -0.0155373635     0.0000000000
    3      H       1.0646696755    -0.8583466816    -0.0000000000
 ----------------------------------------------------------------
 Molecular Point Group                 Cs    NOp =  2
 Largest Abelian Subgroup              Cs    NOp =  2
 Nuclear Repulsion Energy =          54.00716885 hartrees
 There are        9 alpha and        9 beta electrons

                       Distance Matrix (Bohrs)
             O (  1)   F (  2)
   F (  2)  1.700297
   H (  3)  1.073498  2.138093
 
 Applying Cartesian multipole field
    Component          Value
    ---------          -----
     (2,0,0)        1.00000E-10
     (0,2,0)        2.00000E-10
     (0,0,2)       -3.00000E-10
 Nucleus-field energy     = 1.5397395942e-09 hartrees
 Requested basis set is 6-31G
 There are 8 shells and 20 basis functions
 A cutoff of  1.0D-12 yielded     36 shell pairs
 There are       234 function pairs
 Smallest overlap matrix eigenvalue = 9.24E-03
 Guess MOs from SCF MO coefficient file

 -----------------------------------------------------------------------
  General SCF calculation program by
  Eric Jon Sundstrom, Paul Horn, Yuezhi Mao, Dmitri Zuev, Alec White,
  David Stuck, Shaama M.S., Shane Yost, Joonho Lee, David Small,
  Daniel Levine, Susi Lehtola, Hugh Burton, Evgeny Epifanovsky,
  Bang C. Huynh
 -----------------------------------------------------------------------
 Exchange:  B88      Correlation:  LYP
 Using SG-1 standard quadrature grid
 A restricted SCF calculation will be
 performed using DIIS
 SCF converges when DIIS error is below 1.0e-08
 ---------------------------------------
  Cycle       Energy         DIIS error
 ---------------------------------------
    1    -174.1034075756      6.00e-02  
    2    -174.2663108457      1.56e-02  
    3    -174.2688014471      1.27e-02  
    4    -174.2742649955      2.09e-04  
    5    -174.2742665965      9.35e-05  
    6    -174.2742668363      1.72e-05  
    7    -174.2742668448      2.55e-07  
    8    -174.2742668448      2.41e-08  
    9    -174.2742668448      1.24e-09  Convergence criterion met
 ---------------------------------------
 SCF time:   CPU 0.37s  wall 0.00s 
 SCF   energy in the final basis set =     -174.2742668448
 Total energy in the final basis set =     -174.2742668448
 
 --------------------------------------------------------------
             Orbital Energies (a.u.) and Symmetries
 --------------------------------------------------------------
 
 Alpha MOs, Restricted
 -- Occupied --                  
-24.324 -18.859  -1.736  -0.955  -0.650  -0.637  -0.538  -0.185
  1 A'    2 A'    3 A'    4 A'    5 A'    1 A"    6 A'    7 A'                 
 -0.091
  2 A"                                                                         
 -- Virtual --                   
  0.113   0.440   0.749   0.752   0.956   1.133   1.161   1.167
  8 A'    9 A'    3 A"   10 A'   11 A'   12 A'   13 A'    4 A"                 
  1.309   1.804   2.067
 14 A'   15 A'   16 A'                                                         
 
 Beta MOs, Restricted
 -- Occupied --                  
-24.324 -18.859  -1.736  -0.955  -0.650  -0.637  -0.538  -0.185
  1 A'    2 A'    3 A'    4 A'    5 A'    1 A"    6 A'    7 A'                 
 -0.091
  2 A"                                                                         
 -- Virtual --                   
  0.113   0.440   0.749   0.752   0.956   1.133   1.161   1.167
  8 A'    9 A'    3 A"   10 A'   11 A'   12 A'   13 A'    4 A"                 
  1.309   1.804   2.067
 14 A'   15 A'   16 A'                                                         
 --------------------------------------------------------------
 
          Ground-State Mulliken Net Atomic Charges

     Atom                 Charge (a.u.)
  ----------------------------------------
      1 O                     0.081958
      2 F                    -0.121236
      3 H                     0.039278
  ----------------------------------------
  Sum of atomic charges =     0.000000

 -----------------------------------------------------------------
                    Cartesian Multipole Moments
 -----------------------------------------------------------------
    Charge (ESU x 10^10)
                 0.0000
    Dipole Moment (Debye)
         X       0.2036      Y      -1.7225      Z       0.0000
       Tot       1.7345
    Quadrupole Moments (Debye-Ang)
        XX     -10.9246     XY      -1.3430     YY      -9.0456
        XZ       0.0000     YZ       0.0000     ZZ      -9.7689
    Octopole Moments (Debye-Ang^2)
       XXX      -0.1809    XXY      -1.2499    XYY      -0.1359
       YYY      -1.6033    XXZ      -0.0000    XYZ      -0.0000
       YYZ      -0.0000    XZZ      -0.5197    YZZ      -0.5927
       ZZZ      -0.0000
    Hexadecapole Moments (Debye-Ang^3)
      XXXX     -17.7550   XXXY      -1.1855   XXYY      -4.2154
      XYYY      -1.1253   YYYY      -5.8019   XXXZ       0.0000
      XXYZ       0.0000   XYYZ       0.0000   YYYZ       0.0000
      XXZZ      -4.4152   XYZZ      -0.4096   YYZZ      -1.9645
      XZZZ       0.0000   YZZZ       0.0000   ZZZZ      -5.8575
 -----------------------------------------------------------------
 Calculating analytic gradient of the SCF energy
 Gradient of SCF Energy
            1           2           3
    1  -1.6854034   2.4354755  -0.7500721
    2  -2.0254015   0.1293451   1.8960564
    3  -0.0000000   0.0000000   0.0000000
 Max gradient component =       2.435E+00
 RMS gradient           =       1.376E+00
 Gradient time:  CPU 0.27 s  wall 0.27 s

     Step 1	:
        Energy is -174.2742668448
                            Maximum         Tolerance       Converged?
         Gradient           2.15857623e+00	3.00000000e-04	false
         Displacement       4.57614992e-01	1.20000000e-03	false
         Energy change      1.93207484e+00	1.00000000e-06	false


	OPTIMIZATION CYCLE:	2

 Scaling Magnitude of Eigenvalues
 	Minimum: -25.00000000	 Maximum: 25.00000000
 3 Hessian Eigenvalues to form next step
   0.24683180   0.39575736   8.35947094


 Minimum Search taking a RFO step
 Searching for Lambda that minimizes along all modes
	Value of Lambda   -1.53631698
	Norm  of Stepsize  0.51961524
	RMS   of Stepsize  0.30000000

	Performing Iterative Coordinate Back-Transformation

	  Starting from Previous Position

	  iter:	0	rms: 1.0122947409e-01	maxdev: 2.0614109852e-01
	  iter:	1	rms: 3.3921954522e-03	maxdev: 6.5416461972e-03
	  iter:	2	rms: 4.6199953342e-06	maxdev: 9.3438620503e-06
	  iter:	3	rms: 1.0094639214e-11	maxdev: 1.7292110136e-11	 Success!

	Finished Iterative Coordinate Back-Transformation
 ----------------------------------------------------------------
             Standard Nuclear Orientation (Bohr)
    I     Atom           X                Y                Z
 ----------------------------------------------------------------
    1      O       0.7745895541     0.3872903586     0.0000000000
    2      F      -0.9509221226    -0.0155391566     0.0000000000
    3      H       1.1295189482    -1.0665316059    -0.0000000000
 ----------------------------------------------------------------
 Molecular Point Group                 Cs    NOp =  2
 Largest Abelian Subgroup              Cs    NOp =  2
 Nuclear Repulsion Energy =          49.84113790 hartrees
 There are        9 alpha and        9 beta electrons

                       Distance Matrix (Bohrs)
             O (  1)   F (  2)
   F (  2)  1.771909
   H (  3)  1.496520  2.330841
 
 Applying Cartesian multipole field
    Component          Value
    ---------          -----
     (2,0,0)        1.00000E-10
     (0,2,0)        2.00000E-10
     (0,0,2)       -3.00000E-10
 Nucleus-field energy     = 1.8893227681e-09 hartrees
 Requested basis set is 6-31G
 There are 8 shells and 20 basis functions
 A cutoff of  1.0D-12 yielded     36 shell pairs
 There are       234 function pairs
 Smallest overlap matrix eigenvalue = 1.12E-02
 Guess MOs from SCF MO coefficient file

 -----------------------------------------------------------------------
  General SCF calculation program by
  Eric Jon Sundstrom, Paul Horn, Yuezhi Mao, Dmitri Zuev, Alec White,
  David Stuck, Shaama M.S., Shane Yost, Joonho Lee, David Small,
  Daniel Levine, Susi Lehtola, Hugh Burton, Evgeny Epifanovsky,
  Bang C. Huynh
 -----------------------------------------------------------------------
 Exchange:  B88      Correlation:  LYP
 Using SG-1 standard quadrature grid
 A restricted SCF calculation will be
 performed using DIIS
 SCF converges when DIIS error is below 1.0e-08
 ---------------------------------------
  Cycle       Energy         DIIS error
 ---------------------------------------
    1    -174.7733539008      2.81e-02  
    2    -174.8090429004      1.43e-02  
    3    -174.8132530032      9.09e-03  
    4    -174.8160497936      2.31e-04  
    5    -174.8160527400      2.12e-05  
    6    -174.8160527657      7.11e-06  
    7    -174.8160527670      1.34e-06  
    8    -174.8160527671      4.02e-08  
    9    -174.8160527671      3.45e-09  Convergence criterion met
 ---------------------------------------
 SCF time:   CPU 0.37s  wall 1.00s 
 SCF   energy in the final basis set =     -174.8160527671
 Total energy in the final basis set =     -174.8160527671
 
 --------------------------------------------------------------
             Orbital Energies (a.u.) and Symmetries
 --------------------------------------------------------------
 
 Alpha MOs, Restricted
 -- Occupied --                  
-24.318 -18.856  -1.659  -0.828  -0.650  -0.600  -0.510  -0.190
  1 A'    2 A'    3 A'    4 A'    5 A'    1 A"    6 A'    7 A'                 
 -0.100
  2 A"                                                                         
 -- Virtual --                   
  0.073   0.421   0.767   0.814   0.905   0.968   1.127   1.164
  8 A'    9 A'    3 A"   10 A'   11 A'   12 A'   13 A'    4 A"                 
  1.205   1.290   2.033
 14 A'   15 A'   16 A'                                                         
 
 Beta MOs, Restricted
 -- Occupied --                  
-24.318 -18.856  -1.659  -0.828  -0.650  -0.600  -0.510  -0.190
  1 A'    2 A'    3 A'    4 A'    5 A'    1 A"    6 A'    7 A'                 
 -0.100
  2 A"                                                                         
 -- Virtual --                   
  0.073   0.421   0.767   0.814   0.905   0.968   1.127   1.164
  8 A'    9 A'    3 A"   10 A'   11 A'   12 A'   13 A'    4 A"                 
  1.205   1.290   2.033
 14 A'   15 A'   16 A'                                                         
 --------------------------------------------------------------
 
          Ground-State Mulliken Net Atomic Charges

     Atom                 Charge (a.u.)
  ----------------------------------------
      1 O                    -0.125514
      2 F                    -0.125045
      3 H                     0.250560
  ----------------------------------------
  Sum of atomic charges =     0.000000

 -----------------------------------------------------------------
                    Cartesian Multipole Moments
 -----------------------------------------------------------------
    Charge (ESU x 10^10)
                 0.0000
    Dipole Moment (Debye)
         X       0.2526      Y      -1.7753      Z      -0.0000
       Tot       1.7932
    Quadrupole Moments (Debye-Ang)
        XX     -10.9822     XY      -1.4303     YY      -9.4174
        XZ       0.0000     YZ      -0.0000     ZZ     -10.0668
    Octopole Moments (Debye-Ang^2)
       XXX       0.2178    XXY      -1.5861    XYY      -0.2483
       YYY      -3.0338    XXZ      -0.0000    XYZ       0.0000
       YYZ      -0.0000    XZZ      -0.4701    YZZ      -1.0508
       ZZZ      -0.0000
    Hexadecapole Moments (Debye-Ang^3)
      XXXX     -18.6275   XXXY      -1.3523   XXYY      -4.6812
      XYYY      -1.6545   YYYY      -7.6356   XXXZ       0.0000
      XXYZ      -0.0000   XYYZ      -0.0000   YYYZ      -0.0000
      XXZZ      -4.5887   XYZZ      -0.5744   YYZZ      -2.3633
      XZZZ       0.0000   YZZZ      -0.0000   ZZZZ      -6.0944
 -----------------------------------------------------------------
 Calculating analytic gradient of the SCF energy
 Gradient of SCF Energy
            1           2           3
    1  -1.6695039   1.9546880  -0.2851840
    2  -0.6123253   0.2836995   0.3286258
    3   0.0000000   0.0000000  -0.0000000
 Max gradient component =       1.955E+00
 RMS gradient           =       8.977E-01
 Gradient time:  CPU 0.27 s  wall 0.27 s

     Step 2	:
        Energy is -174.8160527671
                            Maximum         Tolerance       Converged?
         Gradient           1.25521942e+00	3.00000000e-04	false
         Displacement       3.56206307e-01	1.20000000e-03	false
         Energy change      5.41785922e-01	1.00000000e-06	false


	OPTIMIZATION CYCLE:	3

 Scaling Magnitude of Eigenvalues
 	Minimum: -25.00000000	 Maximum: 25.00000000
 3 Hessian Eigenvalues to form next step
   0.25057982   2.60375528   4.32784395


 Minimum Search taking a RFO step
 Searching for Lambda that minimizes along all modes
	Value of Lambda   -0.58070209
	Norm  of Stepsize  0.41373492
	RMS   of Stepsize  0.23886997

	Performing Iterative Coordinate Back-Transformation

	  Starting from Previous Position

	  iter:	0	rms: 7.8764889278e-02	maxdev: 1.4864605772e-01
	  iter:	1	rms: 4.3822889911e-03	maxdev: 8.5014955344e-03
	  iter:	2	rms: 9.3688141771e-06	maxdev: 1.9295624480e-05
	  iter:	3	rms: 3.1447403711e-11	maxdev: 5.3970338500e-11	 Success!

	Finished Iterative Coordinate Back-Transformation
 ----------------------------------------------------------------
             Standard Nuclear Orientation (Bohr)
    I     Atom           X                Y                Z
 ----------------------------------------------------------------
    1      O       0.9297341536     0.4995121059     0.0000000000
    2      F      -1.0715759873    -0.0821486485     0.0000000000
    3      H       1.0950282133    -1.1121438614    -0.0000000000
 ----------------------------------------------------------------
 Molecular Point Group                 Cs    NOp =  2
 Largest Abelian Subgroup              Cs    NOp =  2
 Nuclear Repulsion Energy =          43.23643759 hartrees
 There are        9 alpha and        9 beta electrons

                       Distance Matrix (Bohrs)
             O (  1)   F (  2)
   F (  2)  2.084124
   H (  3)  1.620110  2.398971
 
 Applying Cartesian multipole field
    Component          Value
    ---------          -----
     (2,0,0)        1.00000E-10
     (0,2,0)        2.00000E-10
     (0,0,2)       -3.00000E-10
 Nucleus-field energy     = 2.5036204076e-09 hartrees
 Requested basis set is 6-31G
 There are 8 shells and 20 basis functions
 A cutoff of  1.0D-12 yielded     36 shell pairs
 There are       234 function pairs
 Smallest overlap matrix eigenvalue = 2.06E-02
 Guess MOs from SCF MO coefficient file

 -----------------------------------------------------------------------
  General SCF calculation program by
  Eric Jon Sundstrom, Paul Horn, Yuezhi Mao, Dmitri Zuev, Alec White,
  David Stuck, Shaama M.S., Shane Yost, Joonho Lee, David Small,
  Daniel Levine, Susi Lehtola, Hugh Burton, Evgeny Epifanovsky,
  Bang C. Huynh
 -----------------------------------------------------------------------
 Exchange:  B88      Correlation:  LYP
 Using SG-1 standard quadrature grid
 A restricted SCF calculation will be
 performed using DIIS
 SCF converges when DIIS error is below 1.0e-08
 ---------------------------------------
  Cycle       Energy         DIIS error
 ---------------------------------------
    1    -175.1424583861      3.36e-02  
    2    -175.2023267048      9.47e-03  
    3    -175.2023189804      9.48e-03  
    4    -175.2054240198      1.59e-03  
    5    -175.2054950501      2.24e-04  
    6    -175.2054969564      8.32e-06  
    7    -175.2054969615      8.54e-07  
    8    -175.2054969615      5.13e-08  
    9    -175.2054969615      5.05e-09  Convergence criterion met
 ---------------------------------------
 SCF time:   CPU 0.37s  wall 1.00s 
 SCF   energy in the final basis set =     -175.2054969615
 Total energy in the final basis set =     -175.2054969615
 
 --------------------------------------------------------------
             Orbital Energies (a.u.) and Symmetries
 --------------------------------------------------------------
 
 Alpha MOs, Restricted
 -- Occupied --                  
-24.322 -18.854  -1.442  -0.814  -0.601  -0.502  -0.475  -0.247
  1 A'    2 A'    3 A'    4 A'    5 A'    1 A"    6 A'    7 A'                 
 -0.170
  2 A"                                                                         
 -- Virtual --                   
  0.057   0.223   0.747   0.800   0.839   0.877   1.107   1.154
  8 A'    9 A'   10 A'    3 A"   11 A'   12 A'   13 A'    4 A"                 
  1.173   1.352   1.900
 14 A'   15 A'   16 A'                                                         
 
 Beta MOs, Restricted
 -- Occupied --                  
-24.322 -18.854  -1.442  -0.814  -0.601  -0.502  -0.475  -0.247
  1 A'    2 A'    3 A'    4 A'    5 A'    1 A"    6 A'    7 A'                 
 -0.170
  2 A"                                                                         
 -- Virtual --                   
  0.057   0.223   0.747   0.800   0.839   0.877   1.107   1.154
  8 A'    9 A'   10 A'    3 A"   11 A'   12 A'   13 A'    4 A"                 
  1.173   1.352   1.900
 14 A'   15 A'   16 A'                                                         
 --------------------------------------------------------------
 
          Ground-State Mulliken Net Atomic Charges

     Atom                 Charge (a.u.)
  ----------------------------------------
      1 O                    -0.119872
      2 F                    -0.209632
      3 H                     0.329504
  ----------------------------------------
  Sum of atomic charges =     0.000000

 -----------------------------------------------------------------
                    Cartesian Multipole Moments
 -----------------------------------------------------------------
    Charge (ESU x 10^10)
                -0.0000
    Dipole Moment (Debye)
         X       0.4467      Y      -1.7742      Z      -0.0000
       Tot       1.8296
    Quadrupole Moments (Debye-Ang)
        XX     -10.9619     XY      -1.4319     YY      -9.6385
        XZ       0.0000     YZ       0.0000     ZZ     -10.4177
    Octopole Moments (Debye-Ang^2)
       XXX       0.0577    XXY      -1.7353    XYY      -0.2200
       YYY      -3.4586    XXZ      -0.0000    XYZ      -0.0000
       YYZ      -0.0000    XZZ      -0.5083    YZZ      -1.1820
       ZZZ      -0.0000
    Hexadecapole Moments (Debye-Ang^3)
      XXXX     -22.5723   XXXY      -2.1747   XXYY      -5.4789
      XYYY      -2.6546   YYYY      -8.7549   XXXZ       0.0000
      XXYZ       0.0000   XYYZ       0.0000   YYYZ       0.0000
      XXZZ      -5.3165   XYZZ      -0.8990   YYZZ      -2.6260
      XZZZ       0.0000   YZZZ       0.0000   ZZZZ      -6.3710
 -----------------------------------------------------------------
 Calculating analytic gradient of the SCF energy
 Gradient of SCF Energy
            1           2           3
    1  -0.6472448   0.8332014  -0.1859566
    2  -0.2922353   0.1078080   0.1844273
    3  -0.0000000   0.0000000  -0.0000000
 Max gradient component =       8.332E-01
 RMS gradient           =       3.769E-01
 Gradient time:  CPU 0.27 s  wall 0.27 s

     Step 3	:
        Energy is -175.2054969615
                            Maximum         Tolerance       Converged?
         Gradient           5.75187781e-01	3.00000000e-04	false
         Displacement       3.04853520e-01	1.20000000e-03	false
         Energy change      3.89444194e-01	1.00000000e-06	false


	OPTIMIZATION CYCLE:	4

 Scaling Magnitude of Eigenvalues
 	Minimum: -25.00000000	 Maximum: 25.00000000
 3 Hessian Eigenvalues to form next step
   0.27803279   1.99734716   3.54892377


 Minimum Search taking a RFO step
 Searching for Lambda that minimizes along all modes
	Value of Lambda   -0.17995707
	Norm  of Stepsize  0.27893616
	RMS   of Stepsize  0.16104387

	Performing Iterative Coordinate Back-Transformation

	  Starting from Previous Position

	  iter:	0	rms: 5.4292796717e-02	maxdev: 1.1748237853e-01
	  iter:	1	rms: 5.3597795318e-04	maxdev: 1.0060914238e-03
	  iter:	2	rms: 1.5868456408e-07	maxdev: 3.4764474717e-07	 Success!

	Finished Iterative Coordinate Back-Transformation
 ----------------------------------------------------------------
             Standard Nuclear Orientation (Bohr)
    I     Atom           X                Y                Z
 ----------------------------------------------------------------
    1      O       1.0069916984     0.5530514716     0.0000000000
    2      F      -1.1891800469    -0.0877937514     0.0000000000
    3      H       1.1353747281    -1.1600381241    -0.0000000000
 ----------------------------------------------------------------
 Molecular Point Group                 Cs    NOp =  2
 Largest Abelian Subgroup              Cs    NOp =  2
 Nuclear Repulsion Energy =          39.64439276 hartrees
 There are        9 alpha and        9 beta electrons

                       Distance Matrix (Bohrs)
             O (  1)   F (  2)
   F (  2)  2.287762
   H (  3)  1.717894  2.559934
 
 Applying Cartesian multipole field
    Component          Value
    ---------          -----
     (2,0,0)        1.00000E-10
     (0,2,0)        2.00000E-10
     (0,0,2)       -3.00000E-10
 Nucleus-field energy     = 2.9852647826e-09 hartrees
 Requested basis set is 6-31G
 There are 8 shells and 20 basis functions
 A cutoff of  1.0D-12 yielded     36 shell pairs
 There are       234 function pairs
 Smallest overlap matrix eigenvalue = 2.89E-02
 Guess MOs from SCF MO coefficient file

 -----------------------------------------------------------------------
  General SCF calculation program by
  Eric Jon Sundstrom, Paul Horn, Yuezhi Mao, Dmitri Zuev, Alec White,
  David Stuck, Shaama M.S., Shane Yost, Joonho Lee, David Small,
  Daniel Levine, Susi Lehtola, Hugh Burton, Evgeny Epifanovsky,
  Bang C. Huynh
 -----------------------------------------------------------------------
 Exchange:  B88      Correlation:  LYP
 Using SG-1 standard quadrature grid
 A restricted SCF calculation will be
 performed using DIIS
 SCF converges when DIIS error is below 1.0e-08
 ---------------------------------------
  Cycle       Energy         DIIS error
 ---------------------------------------
    1    -175.3270118790      1.65e-02  
    2    -175.3411829821      4.69e-03  
    3    -175.3409467797      5.39e-03  
    4    -175.3419351265      1.40e-03  
    5    -175.3419935922      1.47e-04  
    6    -175.3419945834      7.78e-06  
    7    -175.3419945873      1.47e-06  
    8    -175.3419945875      3.62e-08  
    9    -175.3419945875      5.44e-09  Convergence criterion met
 ---------------------------------------
 SCF time:   CPU 0.37s  wall 0.00s 
 SCF   energy in the final basis set =     -175.3419945875
 Total energy in the final basis set =     -175.3419945875
 
 --------------------------------------------------------------
             Orbital Energies (a.u.) and Symmetries
 --------------------------------------------------------------
 
 Alpha MOs, Restricted
 -- Occupied --                  
-24.326 -18.865  -1.322  -0.832  -0.556  -0.464  -0.454  -0.273
  1 A'    2 A'    3 A'    4 A'    5 A'    6 A'    1 A"    7 A'                 
 -0.201
  2 A"                                                                         
 -- Virtual --                   
  0.042   0.085   0.728   0.805   0.832   0.859   1.103   1.151
  8 A'    9 A'   10 A'    3 A"   11 A'   12 A'   13 A'    4 A"                 
  1.180   1.385   1.837
 14 A'   15 A'   16 A'                                                         
 
 Beta MOs, Restricted
 -- Occupied --                  
-24.326 -18.865  -1.322  -0.832  -0.556  -0.464  -0.454  -0.273
  1 A'    2 A'    3 A'    4 A'    5 A'    6 A'    1 A"    7 A'                 
 -0.201
  2 A"                                                                         
 -- Virtual --                   
  0.042   0.085   0.728   0.805   0.832   0.859   1.103   1.151
  8 A'    9 A'   10 A'    3 A"   11 A'   12 A'   13 A'    4 A"                 
  1.180   1.385   1.837
 14 A'   15 A'   16 A'                                                         
 --------------------------------------------------------------
 
          Ground-State Mulliken Net Atomic Charges

     Atom                 Charge (a.u.)
  ----------------------------------------
      1 O                    -0.154970
      2 F                    -0.213473
      3 H                     0.368444
  ----------------------------------------
  Sum of atomic charges =     0.000000

 -----------------------------------------------------------------
                    Cartesian Multipole Moments
 -----------------------------------------------------------------
    Charge (ESU x 10^10)
                 0.0000
    Dipole Moment (Debye)
         X       0.5861      Y      -1.7751      Z       0.0000
       Tot       1.8693
    Quadrupole Moments (Debye-Ang)
        XX     -10.8358     XY      -1.3877     YY      -9.7307
        XZ       0.0000     YZ       0.0000     ZZ     -10.6201
    Octopole Moments (Debye-Ang^2)
       XXX       0.3711    XXY      -1.8857    XYY      -0.0617
       YYY      -3.8098    XXZ       0.0000    XYZ      -0.0000
       YYZ      -0.0000    XZZ      -0.4257    YZZ      -1.2892
       ZZZ       0.0000
    Hexadecapole Moments (Debye-Ang^3)
      XXXX     -25.7536   XXXY      -2.4953   XXYY      -6.1099
      XYYY      -3.0476   YYYY      -9.4291   XXXZ       0.0000
      XXYZ       0.0000   XYYZ       0.0000   YYYZ       0.0000
      XXZZ      -5.9220   XYZZ      -1.0204   YYZZ      -2.7863
      XZZZ       0.0000   YZZZ       0.0000   ZZZZ      -6.5435
 -----------------------------------------------------------------
 Calculating analytic gradient of the SCF energy
 Gradient of SCF Energy
            1           2           3
    1  -0.3453127   0.4710727  -0.1257600
    2  -0.1433907   0.0453340   0.0980566
    3  -0.0000000  -0.0000000   0.0000000
 Max gradient component =       4.711E-01
 RMS gradient           =       2.080E-01
 Gradient time:  CPU 0.27 s  wall 0.27 s

     Step 4	:
        Energy is -175.3419945875
                            Maximum         Tolerance       Converged?
         Gradient           3.23147606e-01	3.00000000e-04	false
         Displacement       2.67823132e-01	1.20000000e-03	false
         Energy change      1.36497626e-01	1.00000000e-06	false


	OPTIMIZATION CYCLE:	5

 Scaling Magnitude of Eigenvalues
 	Minimum: -25.00000000	 Maximum: 25.00000000
 3 Hessian Eigenvalues to form next step
   0.27009017   1.06161349   3.30848600


 Minimum Search taking a RFO step
 Searching for Lambda that minimizes along all modes
	Value of Lambda   -0.11580901
	Norm  of Stepsize  0.34031376
	RMS   of Stepsize  0.19648024

	Performing Iterative Coordinate Back-Transformation

	  Starting from Previous Position

	  iter:	0	rms: 6.5987876794e-02	maxdev: 1.5225063408e-01
	  iter:	1	rms: 5.5014576507e-04	maxdev: 1.1831757492e-03
	  iter:	2	rms: 1.7070788915e-07	maxdev: 3.6029339295e-07	 Success!

	Finished Iterative Coordinate Back-Transformation
 ----------------------------------------------------------------
             Standard Nuclear Orientation (Bohr)
    I     Atom           X                Y                Z
 ----------------------------------------------------------------
    1      O       1.0767914322     0.5878637144     0.0000000000
    2      F      -1.3418050378    -0.0707544503     0.0000000000
    3      H       1.2181999853    -1.2118896680    -0.0000000000
 ----------------------------------------------------------------
 Molecular Point Group                 Cs    NOp =  2
 Largest Abelian Subgroup              Cs    NOp =  2
 Nuclear Repulsion Energy =          36.36582837 hartrees
 There are        9 alpha and        9 beta electrons

                       Distance Matrix (Bohrs)
             O (  1)   F (  2)
   F (  2)  2.506668
   H (  3)  1.805300  2.802823
 
 Applying Cartesian multipole field
    Component          Value
    ---------          -----
     (2,0,0)        1.00000E-10
     (0,2,0)        2.00000E-10
     (0,0,2)       -3.00000E-10
 Nucleus-field energy     = 3.5520620891e-09 hartrees
 Requested basis set is 6-31G
 There are 8 shells and 20 basis functions
 A cutoff of  1.0D-12 yielded     36 shell pairs
 There are       234 function pairs
 Smallest overlap matrix eigenvalue = 3.91E-02
 Guess MOs from SCF MO coefficient file

 -----------------------------------------------------------------------
  General SCF calculation program by
  Eric Jon Sundstrom, Paul Horn, Yuezhi Mao, Dmitri Zuev, Alec White,
  David Stuck, Shaama M.S., Shane Yost, Joonho Lee, David Small,
  Daniel Levine, Susi Lehtola, Hugh Burton, Evgeny Epifanovsky,
  Bang C. Huynh
 -----------------------------------------------------------------------
 Exchange:  B88      Correlation:  LYP
 Using SG-1 standard quadrature grid
 A restricted SCF calculation will be
 performed using DIIS
 SCF converges when DIIS error is below 1.0e-08
 ---------------------------------------
  Cycle       Energy         DIIS error
 ---------------------------------------
    1    -175.4150007801      1.36e-02  
    2    -175.4250661210      3.50e-03  
    3    -175.4250063548      3.79e-03  
    4    -175.4254531521      1.63e-03  
    5    -175.4255417185      1.79e-04  
    6    -175.4255432480      1.40e-05  
    7    -175.4255432590      3.27e-06  
    8    -175.4255432596      1.08e-07  
    9    -175.4255432596      8.15e-09  Convergence criterion met
 ---------------------------------------
 SCF time:   CPU 0.37s  wall 0.00s 
 SCF   energy in the final basis set =     -175.4255432596
 Total energy in the final basis set =     -175.4255432596
 
 --------------------------------------------------------------
             Orbital Energies (a.u.) and Symmetries
 --------------------------------------------------------------
 
 Alpha MOs, Restricted
 -- Occupied --                  
-24.328 -18.881  -1.219  -0.855  -0.516  -0.451  -0.414  -0.292
  1 A'    2 A'    3 A'    4 A'    5 A'    6 A'    1 A"    7 A'                 
 -0.225
  2 A"                                                                         
 -- Virtual --                   
 -0.027   0.030   0.714   0.803   0.827   0.870   1.111   1.152
  8 A'    9 A'   10 A'    3 A"   11 A'   12 A'   13 A'    4 A"                 
  1.181   1.396   1.786
 14 A'   15 A'   16 A'                                                         
 
 Beta MOs, Restricted
 -- Occupied --                  
-24.328 -18.881  -1.219  -0.855  -0.516  -0.451  -0.414  -0.292
  1 A'    2 A'    3 A'    4 A'    5 A'    6 A'    1 A"    7 A'                 
 -0.225
  2 A"                                                                         
 -- Virtual --                   
 -0.027   0.030   0.714   0.803   0.827   0.870   1.111   1.152
  8 A'    9 A'   10 A'    3 A"   11 A'   12 A'   13 A'    4 A"                 
  1.181   1.396   1.786
 14 A'   15 A'   16 A'                                                         
 --------------------------------------------------------------
 
          Ground-State Mulliken Net Atomic Charges

     Atom                 Charge (a.u.)
  ----------------------------------------
      1 O                    -0.192111
      2 F                    -0.196774
      3 H                     0.388885
  ----------------------------------------
  Sum of atomic charges =     0.000000

 -----------------------------------------------------------------
                    Cartesian Multipole Moments
 -----------------------------------------------------------------
    Charge (ESU x 10^10)
                 0.0000
    Dipole Moment (Debye)
         X       0.7660      Y      -1.7845      Z      -0.0000
       Tot       1.9420
    Quadrupole Moments (Debye-Ang)
        XX     -10.6033     XY      -1.3475     YY      -9.7839
        XZ      -0.0000     YZ      -0.0000     ZZ     -10.7930
    Octopole Moments (Debye-Ang^2)
       XXX       0.9902    XXY      -2.0848    XYY       0.2320
       YYY      -4.1740    XXZ      -0.0000    XYZ       0.0000
       YYZ      -0.0000    XZZ      -0.2477    YZZ      -1.3993
       ZZZ      -0.0000
    Hexadecapole Moments (Debye-Ang^3)
      XXXX     -29.6918   XXXY      -2.6529   XXYY      -6.8547
      XYYY      -3.2460   YYYY      -9.9137   XXXZ      -0.0000
      XXYZ      -0.0000   XYYZ      -0.0000   YYYZ      -0.0000
      XXZZ      -6.6862   XYZZ      -1.0712   YYZZ      -2.9112
      XZZZ       0.0000   YZZZ      -0.0000   ZZZZ      -6.6963
 -----------------------------------------------------------------
 Calculating analytic gradient of the SCF energy
 Gradient of SCF Energy
            1           2           3
    1  -0.1581388   0.2338478  -0.0757091
    2  -0.0492241   0.0099331   0.0392910
    3  -0.0000000   0.0000000  -0.0000000
 Max gradient component =       2.338E-01
 RMS gradient           =       9.972E-02
 Gradient time:  CPU 0.27 s  wall 0.27 s

     Step 5	:
        Energy is -175.4255432596
                            Maximum         Tolerance       Converged?
         Gradient           1.55430781e-01	3.00000000e-04	false
         Displacement       3.32791347e-01	1.20000000e-03	false
         Energy change      8.35486721e-02	1.00000000e-06	false


	OPTIMIZATION CYCLE:	6

 Scaling Magnitude of Eigenvalues
 	Minimum: -25.00000000	 Maximum: 25.00000000
 3 Hessian Eigenvalues to form next step
   0.23963308   0.70545644   3.24580234


 Minimum Search taking a RFO step
 Searching for Lambda that minimizes along all modes
	Value of Lambda   -0.05112162
	Norm  of Stepsize  0.33048785
	RMS   of Stepsize  0.19080725

	Performing Iterative Coordinate Back-Transformation

	  Starting from Previous Position

	  iter:	0	rms: 6.5010216292e-02	maxdev: 1.4856710584e-01
	  iter:	1	rms: 9.4581243072e-04	maxdev: 1.9871816855e-03
	  iter:	2	rms: 6.4390793155e-07	maxdev: 1.3371280791e-06	 Success!

	Finished Iterative Coordinate Back-Transformation
 ----------------------------------------------------------------
             Standard Nuclear Orientation (Bohr)
    I     Atom           X                Y                Z
 ----------------------------------------------------------------
    1      O       1.1191618986     0.5917814835     0.0000000000
    2      F      -1.4905582929    -0.0344509349     0.0000000000
    3      H       1.3245827740    -1.2521109527    -0.0000000000
 ----------------------------------------------------------------
 Molecular Point Group                 Cs    NOp =  2
 Largest Abelian Subgroup              Cs    NOp =  2
 Nuclear Repulsion Energy =          34.07383179 hartrees
 There are        9 alpha and        9 beta electrons

                       Distance Matrix (Bohrs)
             O (  1)   F (  2)
   F (  2)  2.683804
   H (  3)  1.855300  3.067200
 
 Applying Cartesian multipole field
    Component          Value
    ---------          -----
     (2,0,0)        1.00000E-10
     (0,2,0)        2.00000E-10
     (0,0,2)       -3.00000E-10
 Nucleus-field energy     = 4.0530795056e-09 hartrees
 Requested basis set is 6-31G
 There are 8 shells and 20 basis functions
 A cutoff of  1.0D-12 yielded     36 shell pairs
 There are       234 function pairs
 Smallest overlap matrix eigenvalue = 4.79E-02
 Guess MOs from SCF MO coefficient file

 -----------------------------------------------------------------------
  General SCF calculation program by
  Eric Jon Sundstrom, Paul Horn, Yuezhi Mao, Dmitri Zuev, Alec White,
  David Stuck, Shaama M.S., Shane Yost, Joonho Lee, David Small,
  Daniel Levine, Susi Lehtola, Hugh Burton, Evgeny Epifanovsky,
  Bang C. Huynh
 -----------------------------------------------------------------------
 Exchange:  B88      Correlation:  LYP
 Using SG-1 standard quadrature grid
 A restricted SCF calculation will be
 performed using DIIS
 SCF converges when DIIS error is below 1.0e-08
 ---------------------------------------
  Cycle       Energy         DIIS error
 ---------------------------------------
    1    -175.4580077762      8.19e-03  
    2    -175.4619589414      2.07e-03  
    3    -175.4619629470      2.29e-03  
    4    -175.4620874066      1.11e-03  
    5    -175.4621322739      1.82e-04  
    6    -175.4621337961      1.39e-05  
    7    -175.4621338068      3.61e-06  
    8    -175.4621338075      1.52e-07  
    9    -175.4621338075      7.11e-09  Convergence criterion met
 ---------------------------------------
 SCF time:   CPU 0.36s  wall 1.00s 
 SCF   energy in the final basis set =     -175.4621338075
 Total energy in the final basis set =     -175.4621338075
 
 --------------------------------------------------------------
             Orbital Energies (a.u.) and Symmetries
 --------------------------------------------------------------
 
 Alpha MOs, Restricted
 -- Occupied --                  
-24.327 -18.892  -1.154  -0.872  -0.492  -0.438  -0.388  -0.302
  1 A'    2 A'    3 A'    4 A'    5 A'    6 A'    1 A"    7 A'                 
 -0.239
  2 A"                                                                         
 -- Virtual --                   
 -0.091   0.021   0.705   0.798   0.835   0.874   1.131   1.154
  8 A'    9 A'   10 A'    3 A"   11 A'   12 A'   13 A'    4 A"                 
  1.176   1.369   1.773
 14 A'   15 A'   16 A'                                                         
 
 Beta MOs, Restricted
 -- Occupied --                  
-24.327 -18.892  -1.154  -0.872  -0.492  -0.438  -0.388  -0.302
  1 A'    2 A'    3 A'    4 A'    5 A'    6 A'    1 A"    7 A'                 
 -0.239
  2 A"                                                                         
 -- Virtual --                   
 -0.091   0.021   0.705   0.798   0.835   0.874   1.131   1.154
  8 A'    9 A'   10 A'    3 A"   11 A'   12 A'   13 A'    4 A"                 
  1.176   1.369   1.773
 14 A'   15 A'   16 A'                                                         
 --------------------------------------------------------------
 
          Ground-State Mulliken Net Atomic Charges

     Atom                 Charge (a.u.)
  ----------------------------------------
      1 O                    -0.216006
      2 F                    -0.176285
      3 H                     0.392291
  ----------------------------------------
  Sum of atomic charges =     0.000000

 -----------------------------------------------------------------
                    Cartesian Multipole Moments
 -----------------------------------------------------------------
    Charge (ESU x 10^10)
                 0.0000
    Dipole Moment (Debye)
         X       0.9318      Y      -1.8065      Z      -0.0000
       Tot       2.0326
    Quadrupole Moments (Debye-Ang)
        XX     -10.3337     XY      -1.3459     YY      -9.8040
        XZ      -0.0000     YZ      -0.0000     ZZ     -10.8965
    Octopole Moments (Debye-Ang^2)
       XXX       1.7806    XXY      -2.2852    XYY       0.5912
       YYY      -4.4510    XXZ       0.0000    XYZ       0.0000
       YYZ       0.0000    XZZ      -0.0101    YZZ      -1.4795
       ZZZ      -0.0000
    Hexadecapole Moments (Debye-Ang^3)
      XXXX     -33.3736   XXXY      -2.5619   XXYY      -7.5142
      XYYY      -3.1236   YYYY     -10.0351   XXXZ      -0.0000
      XXYZ      -0.0000   XYYZ      -0.0000   YYYZ      -0.0000
      XXZZ      -7.4148   XYZZ      -1.0099   YYZZ      -2.9576
      XZZZ      -0.0000   YZZZ      -0.0000   ZZZZ      -6.7908
 -----------------------------------------------------------------
 Calculating analytic gradient of the SCF energy
 Gradient of SCF Energy
            1           2           3
    1  -0.0644849   0.1078173  -0.0433325
    2  -0.0094791  -0.0036170   0.0130961
    3  -0.0000000  -0.0000000   0.0000000
 Max gradient component =       1.078E-01
 RMS gradient           =       4.464E-02
 Gradient time:  CPU 0.27 s  wall 0.27 s

     Step 6	:
        Energy is -175.4621338075
                            Maximum         Tolerance       Converged?
         Gradient           6.89855676e-02	3.00000000e-04	false
         Displacement       3.11462626e-01	1.20000000e-03	false
         Energy change      3.65905479e-02	1.00000000e-06	false


	OPTIMIZATION CYCLE:	7

 Scaling Magnitude of Eigenvalues
 	Minimum: -25.00000000	 Maximum: 25.00000000
 3 Hessian Eigenvalues to form next step
   0.17209919   0.58987644   3.21308841


 Minimum Search taking a RFO step
 Searching for Lambda that minimizes along all modes
	Value of Lambda   -0.02076949
	Norm  of Stepsize  0.30325896
	RMS   of Stepsize  0.17508664

	Performing Iterative Coordinate Back-Transformation

	  Starting from Previous Position

	  iter:	0	rms: 6.1352087761e-02	maxdev: 1.3220276522e-01
	  iter:	1	rms: 9.5915282977e-04	maxdev: 2.1319283811e-03
	  iter:	2	rms: 6.2621432658e-07	maxdev: 1.3049606462e-06	 Success!

	Finished Iterative Coordinate Back-Transformation
 ----------------------------------------------------------------
             Standard Nuclear Orientation (Bohr)
    I     Atom           X                Y                Z
 ----------------------------------------------------------------
    1      O       1.1374436356     0.5726464734     0.0000000000
    2      F      -1.6226894919     0.0121229486     0.0000000000
    3      H       1.4384322359    -1.2795498259    -0.0000000000
 ----------------------------------------------------------------
 Molecular Point Group                 Cs    NOp =  2
 Largest Abelian Subgroup              Cs    NOp =  2
 Nuclear Repulsion Energy =          32.53597663 hartrees
 There are        9 alpha and        9 beta electrons

                       Distance Matrix (Bohrs)
             O (  1)   F (  2)
   F (  2)  2.816473
   H (  3)  1.876493  3.322482
 
 Applying Cartesian multipole field
    Component          Value
    ---------          -----
     (2,0,0)        1.00000E-10
     (0,2,0)        2.00000E-10
     (0,0,2)       -3.00000E-10
 Nucleus-field energy     = 4.4641326809e-09 hartrees
 Requested basis set is 6-31G
 There are 8 shells and 20 basis functions
 A cutoff of  1.0D-12 yielded     36 shell pairs
 There are       234 function pairs
 Smallest overlap matrix eigenvalue = 5.52E-02
 Guess MOs from SCF MO coefficient file

 -----------------------------------------------------------------------
  General SCF calculation program by
  Eric Jon Sundstrom, Paul Horn, Yuezhi Mao, Dmitri Zuev, Alec White,
  David Stuck, Shaama M.S., Shane Yost, Joonho Lee, David Small,
  Daniel Levine, Susi Lehtola, Hugh Burton, Evgeny Epifanovsky,
  Bang C. Huynh
 -----------------------------------------------------------------------
 Exchange:  B88      Correlation:  LYP
 Using SG-1 standard quadrature grid
 A restricted SCF calculation will be
 performed using DIIS
 SCF converges when DIIS error is below 1.0e-08
 ---------------------------------------
  Cycle       Energy         DIIS error
 ---------------------------------------
    1    -175.4746399354      4.88e-03  
    2    -175.4761936313      1.85e-03  
    3    -175.4757570106      4.01e-03  
    4    -175.4763218008      7.20e-04  
    5    -175.4763420850      1.15e-04  
    6    -175.4763427682      1.46e-05  
    7    -175.4763427799      3.21e-06  
    8    -175.4763427804      1.72e-07  
    9    -175.4763427804      4.41e-09  Convergence criterion met
 ---------------------------------------
 SCF time:   CPU 0.36s  wall 0.00s 
 SCF   energy in the final basis set =     -175.4763427804
 Total energy in the final basis set =     -175.4763427804
 
 --------------------------------------------------------------
             Orbital Energies (a.u.) and Symmetries
 --------------------------------------------------------------
 
 Alpha MOs, Restricted
 -- Occupied --                  
-24.326 -18.899  -1.115  -0.885  -0.481  -0.425  -0.372  -0.306
  1 A'    2 A'    3 A'    4 A'    5 A'    6 A'    1 A"    7 A'                 
 -0.248
  2 A"                                                                         
 -- Virtual --                   
 -0.128   0.017   0.700   0.795   0.842   0.874   1.153   1.156
  8 A'    9 A'   10 A'    3 A"   11 A'   12 A'   13 A'    4 A"                 
  1.172   1.327   1.778
 14 A'   15 A'   16 A'                                                         
 
 Beta MOs, Restricted
 -- Occupied --                  
-24.326 -18.899  -1.115  -0.885  -0.481  -0.425  -0.372  -0.306
  1 A'    2 A'    3 A'    4 A'    5 A'    6 A'    1 A"    7 A'                 
 -0.248
  2 A"                                                                         
 -- Virtual --                   
 -0.128   0.017   0.700   0.795   0.842   0.874   1.153   1.156
  8 A'    9 A'   10 A'    3 A"   11 A'   12 A'   13 A'    4 A"                 
  1.172   1.327   1.778
 14 A'   15 A'   16 A'                                                         
 --------------------------------------------------------------
 
          Ground-State Mulliken Net Atomic Charges

     Atom                 Charge (a.u.)
  ----------------------------------------
      1 O                    -0.231131
      2 F                    -0.158978
      3 H                     0.390109
  ----------------------------------------
  Sum of atomic charges =     0.000000

 -----------------------------------------------------------------
                    Cartesian Multipole Moments
 -----------------------------------------------------------------
    Charge (ESU x 10^10)
                -0.0000
    Dipole Moment (Debye)
         X       1.0710      Y      -1.8338      Z      -0.0000
       Tot       2.1236
    Quadrupole Moments (Debye-Ang)
        XX     -10.0605     XY      -1.3772     YY      -9.8148
        XZ      -0.0000     YZ      -0.0000     ZZ     -10.9529
    Octopole Moments (Debye-Ang^2)
       XXX       2.6429    XXY      -2.4605    XYY       0.9626
       YYY      -4.6356    XXZ      -0.0000    XYZ      -0.0000
       YYZ      -0.0000    XZZ       0.2510    YZZ      -1.5283
       ZZZ      -0.0000
    Hexadecapole Moments (Debye-Ang^3)
      XXXX     -36.4989   XXXY      -2.2899   XXYY      -8.0480
      XYYY      -2.7404   YYYY      -9.9161   XXXZ      -0.0000
      XXYZ       0.0000   XYYZ      -0.0000   YYYZ       0.0000
      XXZZ      -8.0488   XYZZ      -0.8590   YYZZ      -2.9482
      XZZZ      -0.0000   YZZZ      -0.0000   ZZZZ      -6.8433
 -----------------------------------------------------------------
 Calculating analytic gradient of the SCF energy
 Gradient of SCF Energy
            1           2           3
    1  -0.0169649   0.0388349  -0.0218700
    2   0.0013670  -0.0061934   0.0048264
    3   0.0000000  -0.0000000  -0.0000000
 Max gradient component =       3.883E-02
 RMS gradient           =       1.612E-02
 Gradient time:  CPU 0.27 s  wall 0.27 s

     Step 7	:
        Energy is -175.4763427804
                            Maximum         Tolerance       Converged?
         Gradient           2.49101148e-02	3.00000000e-04	false
         Displacement       2.69379830e-01	1.20000000e-03	false
         Energy change      1.42089730e-02	1.00000000e-06	false


	OPTIMIZATION CYCLE:	8

 Scaling Magnitude of Eigenvalues
 	Minimum: -25.00000000	 Maximum: 25.00000000
 3 Hessian Eigenvalues to form next step
   0.11476048   0.58312342   3.20302364


 Minimum Search taking a RFO step
 Searching for Lambda that minimizes along all modes
	Value of Lambda   -0.00576865
	Norm  of Stepsize  0.21550217
	RMS   of Stepsize  0.12442024

	Performing Iterative Coordinate Back-Transformation

	  Starting from Previous Position

	  iter:	0	rms: 4.4808490684e-02	maxdev: 8.9421974327e-02
	  iter:	1	rms: 5.5586753467e-04	maxdev: 1.2584820162e-03
	  iter:	2	rms: 1.7198512503e-07	maxdev: 3.5400905564e-07	 Success!

	Finished Iterative Coordinate Back-Transformation
 ----------------------------------------------------------------
             Standard Nuclear Orientation (Bohr)
    I     Atom           X                Y                Z
 ----------------------------------------------------------------
    1      O       1.1386920169     0.5471052367     0.0000000000
    2      F      -1.7119691739     0.0515514716     0.0000000000
    3      H       1.5264635367    -1.2934371122    -0.0000000000
 ----------------------------------------------------------------
 Molecular Point Group                 Cs    NOp =  2
 Largest Abelian Subgroup              Cs    NOp =  2
 Nuclear Repulsion Energy =          31.70384565 hartrees
 There are        9 alpha and        9 beta electrons

                       Distance Matrix (Bohrs)
             O (  1)   F (  2)
   F (  2)  2.893414
   H (  3)  1.880947  3.506628
 
 Applying Cartesian multipole field
    Component          Value
    ---------          -----
     (2,0,0)        1.00000E-10
     (0,2,0)        2.00000E-10
     (0,0,2)       -3.00000E-10
 Nucleus-field energy     = 4.7263574419e-09 hartrees
 Requested basis set is 6-31G
 There are 8 shells and 20 basis functions
 A cutoff of  1.0D-12 yielded     36 shell pairs
 There are       234 function pairs
 Smallest overlap matrix eigenvalue = 5.99E-02
 Guess MOs from SCF MO coefficient file

 -----------------------------------------------------------------------
  General SCF calculation program by
  Eric Jon Sundstrom, Paul Horn, Yuezhi Mao, Dmitri Zuev, Alec White,
  David Stuck, Shaama M.S., Shane Yost, Joonho Lee, David Small,
  Daniel Levine, Susi Lehtola, Hugh Burton, Evgeny Epifanovsky,
  Bang C. Huynh
 -----------------------------------------------------------------------
 Exchange:  B88      Correlation:  LYP
 Using SG-1 standard quadrature grid
 A restricted SCF calculation will be
 performed using DIIS
 SCF converges when DIIS error is below 1.0e-08
 ---------------------------------------
  Cycle       Energy         DIIS error
 ---------------------------------------
    1    -175.4794236034      2.60e-03  
    2    -175.4799439286      1.34e-03  
    3    -175.4796624639      3.11e-03  
    4    -175.4800236826      3.10e-04  
    5    -175.4800276326      7.58e-05  
    6    -175.4800279250      1.16e-05  
    7    -175.4800279325      1.80e-06  
    8    -175.4800279327      1.47e-07  
    9    -175.4800279327      1.77e-09  Convergence criterion met
 ---------------------------------------
 SCF time:   CPU 0.36s  wall 0.00s 
 SCF   energy in the final basis set =     -175.4800279327
 Total energy in the final basis set =     -175.4800279327
 
 --------------------------------------------------------------
             Orbital Energies (a.u.) and Symmetries
 --------------------------------------------------------------
 
 Alpha MOs, Restricted
 -- Occupied --                  
-24.326 -18.902  -1.096  -0.892  -0.478  -0.416  -0.364  -0.308
  1 A'    2 A'    3 A'    4 A'    5 A'    6 A'    1 A"    7 A'                 
 -0.252
  2 A"                                                                         
 -- Virtual --                   
 -0.147   0.016   0.699   0.793   0.842   0.875   1.156   1.159
  8 A'    9 A'   10 A'    3 A"   11 A'   12 A'    4 A"   13 A'                 
  1.178   1.298   1.779
 14 A'   15 A'   16 A'                                                         
 
 Beta MOs, Restricted
 -- Occupied --                  
-24.326 -18.902  -1.096  -0.892  -0.478  -0.416  -0.364  -0.308
  1 A'    2 A'    3 A'    4 A'    5 A'    6 A'    1 A"    7 A'                 
 -0.252
  2 A"                                                                         
 -- Virtual --                   
 -0.147   0.016   0.699   0.793   0.842   0.875   1.156   1.159
  8 A'    9 A'   10 A'    3 A"   11 A'   12 A'    4 A"   13 A'                 
  1.178   1.298   1.779
 14 A'   15 A'   16 A'                                                         
 --------------------------------------------------------------
 
          Ground-State Mulliken Net Atomic Charges

     Atom                 Charge (a.u.)
  ----------------------------------------
      1 O                    -0.239860
      2 F                    -0.147884
      3 H                     0.387744
  ----------------------------------------
  Sum of atomic charges =     0.000000

 -----------------------------------------------------------------
                    Cartesian Multipole Moments
 -----------------------------------------------------------------
    Charge (ESU x 10^10)
                 0.0000
    Dipole Moment (Debye)
         X       1.1628      Y      -1.8536      Z      -0.0000
       Tot       2.1881
    Quadrupole Moments (Debye-Ang)
        XX      -9.8518     XY      -1.4141     YY      -9.8230
        XZ      -0.0000     YZ       0.0000     ZZ     -10.9777
    Octopole Moments (Debye-Ang^2)
       XXX       3.3305    XXY      -2.5702    XYY       1.2421
       YYY      -4.7224    XXZ      -0.0000    XYZ      -0.0000
       YYZ       0.0000    XZZ       0.4564    YZZ      -1.5474
       ZZZ      -0.0000
    Hexadecapole Moments (Debye-Ang^3)
      XXXX     -38.4986   XXXY      -2.0007   XXYY      -8.3766
      XYYY      -2.3138   YYYY      -9.7426   XXXZ      -0.0000
      XXYZ       0.0000   XYYZ      -0.0000   YYYZ       0.0000
      XXZZ      -8.4664   XYZZ      -0.6987   YYZZ      -2.9197
      XZZZ      -0.0000   YZZZ       0.0000   ZZZZ      -6.8668
 -----------------------------------------------------------------
 Calculating analytic gradient of the SCF energy
 Gradient of SCF Energy
            1           2           3
    1   0.0029100   0.0070909  -0.0100009
    2  -0.0005849  -0.0044688   0.0050537
    3   0.0000000  -0.0000000  -0.0000000
 Max gradient component =       1.000E-02
 RMS gradient           =       4.768E-03
 Gradient time:  CPU 0.27 s  wall 0.27 s

     Step 8	:
        Energy is -175.4800279327
                            Maximum         Tolerance       Converged?
         Gradient           6.51265746e-03	3.00000000e-04	false
         Displacement       1.79945954e-01	1.20000000e-03	false
         Energy change      3.68515223e-03	1.00000000e-06	false


	OPTIMIZATION CYCLE:	9

 Scaling Magnitude of Eigenvalues
 	Minimum: -25.00000000	 Maximum: 25.00000000
 3 Hessian Eigenvalues to form next step
   0.08164340   0.59706929   3.22236964


 Minimum Search taking a RFO step
 Searching for Lambda that minimizes along all modes
	Value of Lambda   -0.00082853
	Norm  of Stepsize  0.09996549
	RMS   of Stepsize  0.05771510

	Performing Iterative Coordinate Back-Transformation

	  Starting from Previous Position

	  iter:	0	rms: 2.1264379692e-02	maxdev: 4.3281012195e-02
	  iter:	1	rms: 1.4191202051e-04	maxdev: 3.1508145113e-04
	  iter:	2	rms: 8.3112963524e-09	maxdev: 1.6682218081e-08	 Success!

	Finished Iterative Coordinate Back-Transformation
 ----------------------------------------------------------------
             Standard Nuclear Orientation (Bohr)
    I     Atom           X                Y                Z
 ----------------------------------------------------------------
    1      O       1.1339368304     0.5313333139     0.0000000000
    2      F      -1.7504786533     0.0721363781     0.0000000000
    3      H       1.5697282025    -1.2982500961    -0.0000000000
 ----------------------------------------------------------------
 Molecular Point Group                 Cs    NOp =  2
 Largest Abelian Subgroup              Cs    NOp =  2
 Nuclear Repulsion Energy =          31.41051771 hartrees
 There are        9 alpha and        9 beta electrons

                       Distance Matrix (Bohrs)
             O (  1)   F (  2)
   F (  2)  2.920739
   H (  3)  1.880768  3.591898
 
 Applying Cartesian multipole field
    Component          Value
    ---------          -----
     (2,0,0)        1.00000E-10
     (0,2,0)        2.00000E-10
     (0,0,2)       -3.00000E-10
 Nucleus-field energy     = 4.8309742051e-09 hartrees
 Requested basis set is 6-31G
 There are 8 shells and 20 basis functions
 A cutoff of  1.0D-12 yielded     35 shell pairs
 There are       233 function pairs
 Smallest overlap matrix eigenvalue = 6.18E-02
 Guess MOs from SCF MO coefficient file

 -----------------------------------------------------------------------
  General SCF calculation program by
  Eric Jon Sundstrom, Paul Horn, Yuezhi Mao, Dmitri Zuev, Alec White,
  David Stuck, Shaama M.S., Shane Yost, Joonho Lee, David Small,
  Daniel Levine, Susi Lehtola, Hugh Burton, Evgeny Epifanovsky,
  Bang C. Huynh
 -----------------------------------------------------------------------
 Exchange:  B88      Correlation:  LYP
 Using SG-1 standard quadrature grid
 A restricted SCF calculation will be
 performed using DIIS
 SCF converges when DIIS error is below 1.0e-08
 ---------------------------------------
  Cycle       Energy         DIIS error
 ---------------------------------------
    1    -175.4803939583      1.05e-03  
    2    -175.4805023370      5.61e-04  
    3    -175.4804479234      1.36e-03  
    4    -175.4805181085      1.06e-04  
    5    -175.4805186224      3.37e-05  
    6    -175.4805186782      5.42e-06  
    7    -175.4805186798      5.96e-07  
    8    -175.4805186798      7.56e-08  
    9    -175.4805186799      7.36e-10  Convergence criterion met
 ---------------------------------------
 SCF time:   CPU 0.36s  wall 1.00s 
 SCF   energy in the final basis set =     -175.4805186799
 Total energy in the final basis set =     -175.4805186799
 
 --------------------------------------------------------------
             Orbital Energies (a.u.) and Symmetries
 --------------------------------------------------------------
 
 Alpha MOs, Restricted
 -- Occupied --                  
-24.326 -18.902  -1.090  -0.894  -0.478  -0.412  -0.361  -0.308
  1 A'    2 A'    3 A'    4 A'    5 A'    6 A'    1 A"    7 A'                 
 -0.253
  2 A"                                                                         
 -- Virtual --                   
 -0.153   0.017   0.699   0.792   0.840   0.877   1.157   1.157
  8 A'    9 A'   10 A'    3 A"   11 A'   12 A'    4 A"   13 A'                 
  1.184   1.287   1.776
 14 A'   15 A'   16 A'                                                         
 
 Beta MOs, Restricted
 -- Occupied --                  
-24.326 -18.902  -1.090  -0.894  -0.478  -0.412  -0.361  -0.308
  1 A'    2 A'    3 A'    4 A'    5 A'    6 A'    1 A"    7 A'                 
 -0.253
  2 A"                                                                         
 -- Virtual --                   
 -0.153   0.017   0.699   0.792   0.840   0.877   1.157   1.157
  8 A'    9 A'   10 A'    3 A"   11 A'   12 A'    4 A"   13 A'                 
  1.184   1.287   1.776
 14 A'   15 A'   16 A'                                                         
 --------------------------------------------------------------
 
          Ground-State Mulliken Net Atomic Charges

     Atom                 Charge (a.u.)
  ----------------------------------------
      1 O                    -0.243529
      2 F                    -0.143054
      3 H                     0.386583
  ----------------------------------------
  Sum of atomic charges =     0.000000

 -----------------------------------------------------------------
                    Cartesian Multipole Moments
 -----------------------------------------------------------------
    Charge (ESU x 10^10)
                 0.0000
    Dipole Moment (Debye)
         X       1.2029      Y      -1.8624      Z      -0.0000
       Tot       2.2171
    Quadrupole Moments (Debye-Ang)
        XX      -9.7514     XY      -1.4353     YY      -9.8273
        XZ      -0.0000     YZ      -0.0000     ZZ     -10.9852
    Octopole Moments (Debye-Ang^2)
       XXX       3.6784    XXY      -2.6150    XYY       1.3760
       YYY      -4.7484    XXZ      -0.0000    XYZ      -0.0000
       YYZ      -0.0000    XZZ       0.5585    YZZ      -1.5511
       ZZZ      -0.0000
    Hexadecapole Moments (Debye-Ang^3)
      XXXX     -39.2858   XXXY      -1.8332   XXYY      -8.5000
      XYYY      -2.0610   YYYY      -9.6410   XXXZ       0.0000
      XXYZ      -0.0000   XYYZ      -0.0000   YYYZ      -0.0000
      XXZZ      -8.6358   XYZZ      -0.6054   YYZZ      -2.9010
      XZZZ      -0.0000   YZZZ      -0.0000   ZZZZ      -6.8743
 -----------------------------------------------------------------
 Calculating analytic gradient of the SCF energy
 Gradient of SCF Energy
            1           2           3
    1   0.0084947  -0.0033523  -0.0051423
    2  -0.0036943  -0.0027414   0.0064357
    3  -0.0000000   0.0000000   0.0000000
 Max gradient component =       8.495E-03
 RMS gradient           =       4.377E-03
 Gradient time:  CPU 0.27 s  wall 0.27 s

     Step 9	:
        Energy is -175.4805186799
                            Maximum         Tolerance       Converged?
         Gradient           7.53489765e-03	3.00000000e-04	false
         Displacement       7.79875570e-02	1.20000000e-03	false
         Energy change      4.90747185e-04	1.00000000e-06	false


	OPTIMIZATION CYCLE:	10

 Scaling Magnitude of Eigenvalues
 	Minimum: -25.00000000	 Maximum: 25.00000000
 3 Hessian Eigenvalues to form next step
   0.06531755   0.60326924   3.24696279


 Minimum Search taking a RFO step
 Searching for Lambda that minimizes along all modes
	Value of Lambda   -0.00008410
	Norm  of Stepsize  0.02858356
	RMS   of Stepsize  0.01650273

	Performing Iterative Coordinate Back-Transformation

	  Starting from Previous Position

	  iter:	0	rms: 6.2781044703e-03	maxdev: 1.3321612645e-02
	  iter:	1	rms: 1.6044340443e-05	maxdev: 3.4059983628e-05
	  iter:	2	rms: 6.4870288119e-11	maxdev: 1.1930719750e-10	 Success!

	Finished Iterative Coordinate Back-Transformation
 ----------------------------------------------------------------
             Standard Nuclear Orientation (Bohr)
    I     Atom           X                Y                Z
 ----------------------------------------------------------------
    1      O       1.1294204703     0.5257586761     0.0000000000
    2      F      -1.7592767157     0.0789881146     0.0000000000
    3      H       1.5830426251    -1.2995271946    -0.0000000000
 ----------------------------------------------------------------
 Molecular Point Group                 Cs    NOp =  2
 Largest Abelian Subgroup              Cs    NOp =  2
 Nuclear Repulsion Energy =          31.37468527 hartrees
 There are        9 alpha and        9 beta electrons

                       Distance Matrix (Bohrs)
             O (  1)   F (  2)
   F (  2)  2.923042
   H (  3)  1.880809  3.615440
 
 Applying Cartesian multipole field
    Component          Value
    ---------          -----
     (2,0,0)        1.00000E-10
     (0,2,0)        2.00000E-10
     (0,0,2)       -3.00000E-10
 Nucleus-field energy     = 4.8478840832e-09 hartrees
 Requested basis set is 6-31G
 There are 8 shells and 20 basis functions
 A cutoff of  1.0D-12 yielded     35 shell pairs
 There are       233 function pairs
 Smallest overlap matrix eigenvalue = 6.22E-02
 Guess MOs from SCF MO coefficient file

 -----------------------------------------------------------------------
  General SCF calculation program by
  Eric Jon Sundstrom, Paul Horn, Yuezhi Mao, Dmitri Zuev, Alec White,
  David Stuck, Shaama M.S., Shane Yost, Joonho Lee, David Small,
  Daniel Levine, Susi Lehtola, Hugh Burton, Evgeny Epifanovsky,
  Bang C. Huynh
 -----------------------------------------------------------------------
 Exchange:  B88      Correlation:  LYP
 Using SG-1 standard quadrature grid
 A restricted SCF calculation will be
 performed using DIIS
 SCF converges when DIIS error is below 1.0e-08
 ---------------------------------------
  Cycle       Energy         DIIS error
[...]
  Cycle       Energy         DIIS error
 ---------------------------------------
    1    -175.4807656717      1.22e-04  
    2    -175.4807664045      1.16e-04  
    3    -175.4807658835      1.69e-04  
    4    -175.4807669633      1.73e-05  
    5    -175.4807669735      2.61e-06  
    6    -175.4807669738      2.81e-07  
    7    -175.4807669738      4.63e-08  
    8    -175.4807669738      9.61e-10  Convergence criterion met
 ---------------------------------------
 SCF time:   CPU 0.25s  wall 0.00s 
 SCF   energy in the final basis set =     -175.4807669738
 Total energy in the final basis set =     -175.4807669738
 
 --------------------------------------------------------------
             Orbital Energies (a.u.) and Symmetries
 --------------------------------------------------------------
 
 Alpha MOs, Restricted
 -- Occupied --                  
-24.326 -18.901  -1.093  -0.890  -0.481  -0.409  -0.362  -0.307
  1 A'    2 A'    3 A'    4 A'    5 A'    6 A'    1 A"    7 A'                 
 -0.251
  2 A"                                                                         
 -- Virtual --                   
 -0.147   0.014   0.693   0.793   0.835   0.881   1.154   1.157
  8 A'    9 A'   10 A'    3 A"   11 A'   12 A'   13 A'    4 A"                 
  1.190   1.289   1.777
 14 A'   15 A'   16 A'                                                         
 
 Beta MOs, Restricted
 -- Occupied --                  
-24.326 -18.901  -1.093  -0.890  -0.481  -0.409  -0.362  -0.307
  1 A'    2 A'    3 A'    4 A'    5 A'    6 A'    1 A"    7 A'                 
 -0.251
  2 A"                                                                         
 -- Virtual --                   
 -0.147   0.014   0.693   0.793   0.835   0.881   1.154   1.157
  8 A'    9 A'   10 A'    3 A"   11 A'   12 A'   13 A'    4 A"                 
  1.190   1.289   1.777
 14 A'   15 A'   16 A'                                                         
 --------------------------------------------------------------
 
          Ground-State Mulliken Net Atomic Charges

     Atom                 Charge (a.u.)
  ----------------------------------------
      1 O                    -0.244037
      2 F                    -0.141336
      3 H                     0.385373
  ----------------------------------------
  Sum of atomic charges =     0.000000

 -----------------------------------------------------------------
                    Cartesian Multipole Moments
 -----------------------------------------------------------------
    Charge (ESU x 10^10)
                 0.0000
    Dipole Moment (Debye)
         X       1.2227      Y      -1.8682      Z      -0.0000
       Tot       2.2328
    Quadrupole Moments (Debye-Ang)
        XX      -9.7126     XY      -1.4572     YY      -9.8260
        XZ       0.0000     YZ      -0.0000     ZZ     -10.9887
    Octopole Moments (Debye-Ang^2)
       XXX       3.9789    XXY      -2.6548    XYY       1.4787
       YYY      -4.8126    XXZ      -0.0000    XYZ       0.0000
       YYZ      -0.0000    XZZ       0.6394    YZZ      -1.5634
       ZZZ      -0.0000
    Hexadecapole Moments (Debye-Ang^3)
      XXXX     -39.0036   XXXY      -1.6375   XXYY      -8.4244
      XYYY      -1.8018   YYYY      -9.6271   XXXZ       0.0000
      XXYZ      -0.0000   XYYZ       0.0000   YYYZ      -0.0000
      XXZZ      -8.5875   XYZZ      -0.5053   YYZZ      -2.8991
      XZZZ       0.0000   YZZZ      -0.0000   ZZZZ      -6.8805
 -----------------------------------------------------------------
 Calculating analytic gradient of the SCF energy
 Gradient of SCF Energy
            1           2           3
    1  -0.0003801   0.0006011  -0.0002210
    2  -0.0006212   0.0000999   0.0005213
    3  -0.0000000   0.0000000   0.0000000
 Max gradient component =       6.212E-04
 RMS gradient           =       3.685E-04
 Gradient time:  CPU 0.22 s  wall 0.22 s

     Step 15	:
        Energy is -175.4807669738
                            Maximum         Tolerance       Converged?
         Gradient           5.64735987e-04	3.00000000e-04	false
         Displacement       4.37451753e-03	1.20000000e-03	false
         Energy change      4.22912638e-06	1.00000000e-06	false


	OPTIMIZATION CYCLE:	16

 Scaling Magnitude of Eigenvalues
 	Minimum: -25.00000000	 Maximum: 25.00000000
 3 Hessian Eigenvalues to form next step
   0.07218921   0.24791133   0.40616417


 Minimum Search taking a RFO step
 Searching for Lambda that minimizes along all modes
	Value of Lambda   -0.00000166
	Norm  of Stepsize  0.00248889
	RMS   of Stepsize  0.00143696

	Performing Iterative Coordinate Back-Transformation

	  Starting from Previous Position

	  iter:	0	rms: 5.0512905352e-04	maxdev: 8.5172694205e-04
	  iter:	1	rms: 1.1570689841e-07	maxdev: 2.2490648630e-07	 Success!

	Finished Iterative Coordinate Back-Transformation
 ----------------------------------------------------------------
             Standard Nuclear Orientation (Bohr)
    I     Atom           X                Y                Z
 ----------------------------------------------------------------
    1      O       1.1057872936     0.5227237267     0.0000000000
    2      F      -1.7581131824     0.0916517779     0.0000000000
    3      H       1.6055122684    -1.3091559085    -0.0000000000
 ----------------------------------------------------------------
 Molecular Point Group                 Cs    NOp =  2
 Largest Abelian Subgroup              Cs    NOp =  2
 Nuclear Repulsion Energy =          31.54368980 hartrees
 There are        9 alpha and        9 beta electrons

                       Distance Matrix (Bohrs)
             O (  1)   F (  2)
   F (  2)  2.896161
   H (  3)  1.898818  3.643657
 
 Applying Cartesian multipole field
    Component          Value
    ---------          -----
     (2,0,0)        1.00000E-10
     (0,2,0)        2.00000E-10
     (0,0,2)       -3.00000E-10
 Nucleus-field energy     = 4.8129272380e-09 hartrees
 Requested basis set is 6-31G
 There are 8 shells and 20 basis functions
 A cutoff of  1.0D-12 yielded     36 shell pairs
 There are       234 function pairs
 Smallest overlap matrix eigenvalue = 6.20E-02
 Guess MOs from SCF MO coefficient file

 -----------------------------------------------------------------------
  General SCF calculation program by
  Eric Jon Sundstrom, Paul Horn, Yuezhi Mao, Dmitri Zuev, Alec White,
  David Stuck, Shaama M.S., Shane Yost, Joonho Lee, David Small,
  Daniel Levine, Susi Lehtola, Hugh Burton, Evgeny Epifanovsky,
  Bang C. Huynh
 -----------------------------------------------------------------------
 Exchange:  B88      Correlation:  LYP
 Using SG-1 standard quadrature grid
 A restricted SCF calculation will be
 performed using DIIS
 SCF converges when DIIS error is below 1.0e-08
 ---------------------------------------
  Cycle       Energy         DIIS error
 ---------------------------------------
    1    -175.4807676758      6.55e-05  
    2    -175.4807678833      4.65e-05  
    3    -175.4807676880      8.62e-05  
    4    -175.4807679722      1.06e-05  
    5    -175.4807679759      1.51e-06  
    6    -175.4807679760      1.61e-07  
    7    -175.4807679760      4.54e-08  
    8    -175.4807679760      1.23e-09  Convergence criterion met
 ---------------------------------------
 SCF time:   CPU 0.25s  wall 1.00s 
 SCF   energy in the final basis set =     -175.4807679760
 Total energy in the final basis set =     -175.4807679760
 
 --------------------------------------------------------------
             Orbital Energies (a.u.) and Symmetries
 --------------------------------------------------------------
 
 Alpha MOs, Restricted
 -- Occupied --                  
-24.326 -18.901  -1.092  -0.890  -0.481  -0.409  -0.362  -0.307
  1 A'    2 A'    3 A'    4 A'    5 A'    6 A'    1 A"    7 A'                 
 -0.251
  2 A"                                                                         
 -- Virtual --                   
 -0.148   0.014   0.693   0.793   0.835   0.881   1.154   1.157
  8 A'    9 A'   10 A'    3 A"   11 A'   12 A'   13 A'    4 A"                 
  1.190   1.289   1.777
 14 A'   15 A'   16 A'                                                         
 
 Beta MOs, Restricted
 -- Occupied --                  
-24.326 -18.901  -1.092  -0.890  -0.481  -0.409  -0.362  -0.307
  1 A'    2 A'    3 A'    4 A'    5 A'    6 A'    1 A"    7 A'                 
 -0.251
  2 A"                                                                         
 -- Virtual --                   
 -0.148   0.014   0.693   0.793   0.835   0.881   1.154   1.157
  8 A'    9 A'   10 A'    3 A"   11 A'   12 A'   13 A'    4 A"                 
  1.190   1.289   1.777
 14 A'   15 A'   16 A'                                                         
 --------------------------------------------------------------
 
          Ground-State Mulliken Net Atomic Charges

     Atom                 Charge (a.u.)
  ----------------------------------------
      1 O                    -0.244056
      2 F                    -0.141313
      3 H                     0.385368
  ----------------------------------------
  Sum of atomic charges =     0.000000

 -----------------------------------------------------------------
                    Cartesian Multipole Moments
 -----------------------------------------------------------------
    Charge (ESU x 10^10)
                 0.0000
    Dipole Moment (Debye)
         X       1.2237      Y      -1.8679      Z       0.0000
       Tot       2.2331
    Quadrupole Moments (Debye-Ang)
        XX      -9.7121     XY      -1.4568     YY      -9.8258
        XZ      -0.0000     YZ       0.0000     ZZ     -10.9897
    Octopole Moments (Debye-Ang^2)
       XXX       3.9785    XXY      -2.6562    XYY       1.4799
       YYY      -4.8173    XXZ       0.0000    XYZ      -0.0000
       YYZ       0.0000    XZZ       0.6393    YZZ      -1.5648
       ZZZ       0.0000
    Hexadecapole Moments (Debye-Ang^3)
      XXXX     -39.0387   XXXY      -1.6404   XXYY      -8.4314
      XYYY      -1.8069   YYYY      -9.6356   XXXZ      -0.0000
      XXYZ      -0.0000   XYYZ      -0.0000   YYYZ       0.0000
      XXZZ      -8.5945   XYZZ      -0.5069   YYZZ      -2.9010
      XZZZ      -0.0000   YZZZ       0.0000   ZZZZ      -6.8816
 -----------------------------------------------------------------
 Calculating analytic gradient of the SCF energy
 Gradient of SCF Energy
            1           2           3
    1  -0.0001036   0.0002189  -0.0001153
    2  -0.0000599   0.0000257   0.0000342
    3  -0.0000000  -0.0000000   0.0000000
 Max gradient component =       2.189E-04
 RMS gradient           =       9.272E-05
 Gradient time:  CPU 0.22 s  wall 0.22 s

     Step 16	:
        Energy is -175.4807679760
                            Maximum         Tolerance       Converged?
         Gradient           1.48993904e-04	3.00000000e-04	true
         Displacement       2.23589865e-03	1.20000000e-03	false
         Energy change      1.00216769e-06	1.00000000e-06	false


	OPTIMIZATION CYCLE:	17

 Scaling Magnitude of Eigenvalues
 	Minimum: -25.00000000	 Maximum: 25.00000000
 3 Hessian Eigenvalues to form next step
   0.06888515   0.19244824   0.43240643


 Minimum Search taking a RFO step
 Searching for Lambda that minimizes along all modes
	Value of Lambda   -0.00000020
	Norm  of Stepsize  0.00141324
	RMS   of Stepsize  0.00081593

	Performing Iterative Coordinate Back-Transformation

	  Starting from Previous Position

	  iter:	0	rms: 2.8210376345e-04	maxdev: 6.0095220845e-04
	  iter:	1	rms: 1.9099989255e-08	maxdev: 4.1484675344e-08	 Success!

	Finished Iterative Coordinate Back-Transformation
 ----------------------------------------------------------------
             Standard Nuclear Orientation (Bohr)
    I     Atom           X                Y                Z
 ----------------------------------------------------------------
    1      O       1.1058664357     0.5226808866     0.0000000000
    2      F      -1.7587141336     0.0918653113     0.0000000000
    3      H       1.6060340775    -1.3093266019    -0.0000000000
 ----------------------------------------------------------------
 Molecular Point Group                 Cs    NOp =  2
 Largest Abelian Subgroup              Cs    NOp =  2
 Nuclear Repulsion Energy =          31.53691080 hartrees
 There are        9 alpha and        9 beta electrons

                       Distance Matrix (Bohrs)
             O (  1)   F (  2)
   F (  2)  2.896795
   H (  3)  1.899057  3.644841
 
 Applying Cartesian multipole field
    Component          Value
    ---------          -----
     (2,0,0)        1.00000E-10
     (0,2,0)        2.00000E-10
     (0,0,2)       -3.00000E-10
 Nucleus-field energy     = 4.8152252165e-09 hartrees
 Requested basis set is 6-31G
 There are 8 shells and 20 basis functions
 A cutoff of  1.0D-12 yielded     36 shell pairs
 There are       234 function pairs
 Smallest overlap matrix eigenvalue = 6.20E-02
 Guess MOs from SCF MO coefficient file

 -----------------------------------------------------------------------
  General SCF calculation program by
  Eric Jon Sundstrom, Paul Horn, Yuezhi Mao, Dmitri Zuev, Alec White,
  David Stuck, Shaama M.S., Shane Yost, Joonho Lee, David Small,
  Daniel Levine, Susi Lehtola, Hugh Burton, Evgeny Epifanovsky,
  Bang C. Huynh
 -----------------------------------------------------------------------
 Exchange:  B88      Correlation:  LYP
 Using SG-1 standard quadrature grid
 A restricted SCF calculation will be
 performed using DIIS
 SCF converges when DIIS error is below 1.0e-08
 ---------------------------------------
  Cycle       Energy         DIIS error
 ---------------------------------------
    1    -175.4807680625      1.86e-05  
    2    -175.4807680852      7.36e-06  
    3    -175.4807680825      1.18e-05  
    4    -175.4807680870      5.42e-06  
    5    -175.4807680881      4.80e-07  
    6    -175.4807680881      9.77e-08  
    7    -175.4807680881      1.56e-08  
    8    -175.4807680881      5.65e-10  Convergence criterion met
 ---------------------------------------
 SCF time:   CPU 0.25s  wall 0.00s 
 SCF   energy in the final basis set =     -175.4807680881
 Total energy in the final basis set =     -175.4807680881
 
 --------------------------------------------------------------
             Orbital Energies (a.u.) and Symmetries
 --------------------------------------------------------------
 
 Alpha MOs, Restricted
 -- Occupied --                  
-24.326 -18.901  -1.092  -0.890  -0.481  -0.409  -0.362  -0.307
  1 A'    2 A'    3 A'    4 A'    5 A'    6 A'    1 A"    7 A'                 
 -0.251
  2 A"                                                                         
 -- Virtual --                   
 -0.148   0.013   0.692   0.793   0.835   0.881   1.154   1.157
  8 A'    9 A'   10 A'    3 A"   11 A'   12 A'   13 A'    4 A"                 
  1.190   1.289   1.777
 14 A'   15 A'   16 A'                                                         
 
 Beta MOs, Restricted
 -- Occupied --                  
-24.326 -18.901  -1.092  -0.890  -0.481  -0.409  -0.362  -0.307
  1 A'    2 A'    3 A'    4 A'    5 A'    6 A'    1 A"    7 A'                 
 -0.251
  2 A"                                                                         
 -- Virtual --                   
 -0.148   0.013   0.692   0.793   0.835   0.881   1.154   1.157
  8 A'    9 A'   10 A'    3 A"   11 A'   12 A'   13 A'    4 A"                 
  1.190   1.289   1.777
 14 A'   15 A'   16 A'                                                         
 --------------------------------------------------------------
 
          Ground-State Mulliken Net Atomic Charges

     Atom                 Charge (a.u.)
  ----------------------------------------
      1 O                    -0.244103
      2 F                    -0.141253
      3 H                     0.385355
  ----------------------------------------
  Sum of atomic charges =     0.000000

 -----------------------------------------------------------------
                    Cartesian Multipole Moments
 -----------------------------------------------------------------
    Charge (ESU x 10^10)
                 0.0000
    Dipole Moment (Debye)
         X       1.2243      Y      -1.8680      Z       0.0000
       Tot       2.2334
    Quadrupole Moments (Debye-Ang)
        XX      -9.7108     XY      -1.4569     YY      -9.8258
        XZ       0.0000     YZ      -0.0000     ZZ     -10.9900
    Octopole Moments (Debye-Ang^2)
       XXX       3.9825    XXY      -2.6569    XYY       1.4816
       YYY      -4.8184    XXZ      -0.0000    XYZ      -0.0000
       YYZ      -0.0000    XZZ       0.6405    YZZ      -1.5651
       ZZZ      -0.0000
    Hexadecapole Moments (Debye-Ang^3)
      XXXX     -39.0544   XXXY      -1.6390   XXYY      -8.4342
      XYYY      -1.8048   YYYY      -9.6361   XXXZ       0.0000
      XXYZ      -0.0000   XYYZ       0.0000   YYYZ      -0.0000
      XXZZ      -8.5978   XYZZ      -0.5061   YYZZ      -2.9012
      XZZZ       0.0000   YZZZ      -0.0000   ZZZZ      -6.8819
 -----------------------------------------------------------------
 Calculating analytic gradient of the SCF energy
 Gradient of SCF Energy
            1           2           3
    1   0.0000094   0.0000318  -0.0000411
    2   0.0000066   0.0000324  -0.0000390
    3   0.0000000  -0.0000000  -0.0000000
 Max gradient component =       4.112E-05
 RMS gradient           =       2.449E-05
 Gradient time:  CPU 0.22 s  wall 0.22 s

     Step 17	:
        Energy is -175.4807680881
                            Maximum         Tolerance       Converged?
         Gradient           2.11116898e-05	3.00000000e-04	true
         Displacement       1.31642918e-03	1.20000000e-03	false
         Energy change      1.12088173e-07	1.00000000e-06	true

	 Optimization Converged in 17 cycles

 *****************************************************
             End of BFGS Algorithm
 *****************************************************
		----------------------------------
		   Verification of Optimization
		----------------------------------

 Eigenvalues of Hessian in Optimization Verification
   0.05674748   0.20153559   0.43400325


 Found a minimum
		---------------------------------
		       End of Verification
		---------------------------------

 Final energy is -175.480768088091

	******************************
	**  OPTIMIZATION CONVERGED  **
	******************************
 ----------------------------------------------------------------
             Standard Nuclear Orientation (Bohr)
    I     Atom           X                Y                Z
 ----------------------------------------------------------------
    1      O       1.1058664357     0.5226808866     0.0000000000
    2      F      -1.7587141336     0.0918653113     0.0000000000
    3      H       1.6060340775    -1.3093266019    -0.0000000000
 ----------------------------------------------------------------
 Molecular Point Group                 Cs    NOp =  2
 Largest Abelian Subgroup              Cs    NOp =  2
 Nuclear Repulsion Energy =          31.53691080 hartrees
 There are        9 alpha and        9 beta electrons

Z-matrix Print:
$molecule
0 1
O 
H  1 1.899057
F  1 2.896795 2 96.717684
$end

 -----------------------------------------------------------------------
                  END OF GEOMETRY OPTIMIZER USING LIBOPT3               
 -----------------------------------------------------------------------
 Total job time:  11.68s(wall), 11.49s(cpu) 
 Tue Jul  4 16:11:18 2023

        *************************************************************
        *                                                           *
        *  Thank you very much for using Q-Chem.  Have a nice day.  *
        *                                                           *
        *************************************************************


